<LesHouchesEvents version="3.0">
<header>
<!--
#*********************************************************************
#                                                                    *
#                        MadGraph5_aMC@NLO                           *
#                                                                    *
#                           Going Beyond                             *
#                                                                    *
#                   http://madgraph.hep.uiuc.edu                     *
#                   http://madgraph.phys.ucl.ac.be                   *
#                   http://amcatnlo.cern.ch                          *
#                                                                    *
#                     The MadGraph5_aMC@NLO team                     *
#                                                                    *
#....................................................................*
#                                                                    *
# This file contains all the information necessary to reproduce      *
# the events generated:                                              *
#                                                                    *
# 1. software version                                                *
# 2. proc_card          : code generation info including model       *
# 3. param_card         : model primary parameters in the LH format  *
# 4. run_card           : running parameters (collider and cuts)     *
# 5. pythia_card        : present only if pythia has been run        *
# 6. pgs_card           : present only if pgs has been run           *
# 7. delphes_cards      : present only if delphes has been run       *
#                                                                    *
#                                                                    *
#*********************************************************************
-->
<MGVersion>
#5.2.2.3
</MGVersion>
<MG5ProcCard>
#************************************************************
#*                     MadGraph5_aMC@NLO                    *
#*                                                          *
#*                *                       *                 *
#*                  *        * *        *                   *
#*                    * * * * 5 * * * *                     *
#*                  *        * *        *                   *
#*                *                       *                 *
#*                                                          *
#*                                                          *
#*         VERSION 2.2.3                 2015-02-10         *
#*                                                          *
#*    The MadGraph5_aMC@NLO Development Team - Find us at   *
#*    https://server06.fynu.ucl.ac.be/projects/madgraph     *
#*                                                          *
#************************************************************
#*                                                          *
#*               Command File for MadGraph5_aMC@NLO         *
#*                                                          *
#*     run as ./bin/mg5_aMC  filename                       *
#*                                                          *
#************************************************************
set group_subprocesses Auto
set ignore_six_quark_processes False
set loop_optimized_output True
set gauge unitary
set complex_mass_scheme False
import model sm
define p = g u c d s u~ c~ d~ s~
define j = g u c d s u~ c~ d~ s~
define l+ = e+ mu+
define l- = e- mu-
define vl = ve vm vt
define vl~ = ve~ vm~ vt~
import model Zprime_UFO
generate p p > zph, zph > j j
add process p p > zph, zph > b b~
output Dijet_signal
</MG5ProcCard>
<MGProcCard>
#*********************************************************************
#                        MadGraph/MadEvent                           *
#                   http://madgraph.hep.uiuc.edu                     *
#                                                                    *
#                          proc_card.dat                             *
#*********************************************************************
#                                                                    *
#            This Files is generated by MADGRAPH 5                   *
#                                                                    *
# WARNING: This Files is generated for MADEVENT (compatibility issue)*
#          This files is NOT a valid MG4 proc_card.dat               *
#          Running this in MG4 will NEVER reproduce the result of MG5*
#                                                                    *
#*********************************************************************
#*********************************************************************
# Process(es) requested : mg2 input                                  *
#*********************************************************************
# Begin PROCESS # This is TAG. Do not modify this line
p p > zph , zph > j j           #Process
# Be carefull the coupling are here in MG5 convention
          
end_coup           # End the couplings input

done               # this tells MG there are no more procs
# End PROCESS  # This is TAG. Do not modify this line
#*********************************************************************
# Model information                                                  *
#*********************************************************************
# Begin MODEL  # This is TAG. Do not modify this line
Zprime_UFO
# End   MODEL  # This is TAG. Do not modify this line
#*********************************************************************
# Start multiparticle definitions                                    *
#*********************************************************************
# Begin MULTIPARTICLES # This is TAG. Do not modify this line

# End  MULTIPARTICLES # This is TAG. Do not modify this line
</MGProcCard>
<MGRunCard>
#*********************************************************************
#                       MadGraph5_aMC@NLO                            *
#                                                                    *
#                     run_card.dat MadEvent                          *
#                                                                    *
#  This file is used to set the parameters of the run.               *
#                                                                    *
#  Some notation/conventions:                                        *
#                                                                    *
#   Lines starting with a '# ' are info or comments                  *
#                                                                    *
#   mind the format:   value    = variable     ! comment             *
#*********************************************************************
#
#*******************                                                 
# Running parameters
#*******************                                                 
#                                                                    
#*********************************************************************
# Tag name for the run (one word)                                    *
#*********************************************************************
  tag_1     = run_tag ! name of the run 
#*********************************************************************
# Run to generate the grid pack                                      *
#*********************************************************************
  .false.     = gridpack  !True = setting up the grid pack
#*********************************************************************
# Number of events and rnd seed                                      *
# Warning: Do not generate more than 1M events in a single run       *
# If you want to run Pythia, avoid more than 50k events in a run.    *
#*********************************************************************
  2000 = nevents ! Number of unweighted events requested 
 1254 = iseed   ! rnd seed (0=assigned automatically=default))
#*********************************************************************
# Collider type and energy                                           *
# lpp: 0=No PDF, 1=proton, -1=antiproton, 2=photon from proton,      *
#                                         3=photon from electron     *
#*********************************************************************
        1     = lpp1    ! beam 1 type 
        1     = lpp2    ! beam 2 type
     4000     = ebeam1  ! beam 1 total energy in GeV
     4000     = ebeam2  ! beam 2 total energy in GeV
#*********************************************************************
# Beam polarization from -100 (left-handed) to 100 (right-handed)    *
#*********************************************************************
        0     = polbeam1 ! beam polarization for beam 1
        0     = polbeam2 ! beam polarization for beam 2
#*********************************************************************
# PDF CHOICE: this automatically fixes also alpha_s and its evol.    *
#*********************************************************************
 'nn23lo1'    = pdlabel     ! PDF set                                     
 230000    = lhaid     ! if pdlabel=lhapdf, this is the lhapdf number
#*********************************************************************
# Renormalization and factorization scales                           *
#*********************************************************************
 F        = fixed_ren_scale  ! if .true. use fixed ren scale
 F        = fixed_fac_scale  ! if .true. use fixed fac scale
 91.1880  = scale            ! fixed ren scale
 91.1880  = dsqrt_q2fact1    ! fixed fact scale for pdf1
 91.1880  = dsqrt_q2fact2    ! fixed fact scale for pdf2
 1        = scalefact        ! scale factor for event-by-event scales
#*********************************************************************
# Matching - Warning! ickkw > 1 is still beta
#*********************************************************************
 0        = ickkw            ! 0 no matching, 1 MLM, 2 CKKW matching
 1        = highestmult      ! for ickkw=2, highest mult group
 1        = ktscheme         ! for ickkw=1, 1 Durham kT, 2 Pythia pTE
 1        = alpsfact         ! scale factor for QCD emission vx
 F        = chcluster        ! cluster only according to channel diag
 T        = pdfwgt           ! for ickkw=1, perform pdf reweighting
 5        = asrwgtflavor     ! highest quark flavor for a_s reweight
 T        = clusinfo         ! include clustering tag in output
 3.0      = lhe_version       ! Change the way clustering information pass to shower.        
#*********************************************************************
#**********************************************************
#
#**********************************************************
# Automatic ptj and mjj cuts if xqcut > 0
# (turn off for VBF and single top processes)
#**********************************************************
   T  = auto_ptj_mjj  ! Automatic setting of ptj and mjj
#**********************************************************
#                                                                    
#**********************************
# BW cutoff (M+/-bwcutoff*Gamma)
#**********************************
  15  = bwcutoff      ! (M+/-bwcutoff*Gamma)
#**********************************************************
# Apply pt/E/eta/dr/mij cuts on decay products or not
# (note that etmiss/ptll/ptheavy/ht/sorted cuts always apply)
#**********************************************************
   T  = cut_decays    ! Cut decay products 
#*************************************************************
# Number of helicities to sum per event (0 = all helicities)
# 0 gives more stable result, but longer run time (needed for
# long decay chains e.g.).
# Use >=2 if most helicities contribute, e.g. pure QCD.
#*************************************************************
   0  = nhel          ! Number of helicities used per event
#*******************                                                 
# Standard Cuts
#*******************                                                 
#                                                                    
#*********************************************************************
# Minimum and maximum pt's (for max, -1 means no cut)                *
#*********************************************************************
 20  = ptj       ! minimum pt for the jets 
  0  = ptb       ! minimum pt for the b 
 10  = pta       ! minimum pt for the photons 
 10  = ptl       ! minimum pt for the charged leptons 
  0  = misset    ! minimum missing Et (sum of neutrino's momenta)
  0  = ptheavy   ! minimum pt for one heavy final state
 1.0 = ptonium   ! minimum pt for the quarkonium states
 -1  = ptjmax    ! maximum pt for the jets
 -1  = ptbmax    ! maximum pt for the b
 -1  = ptamax    ! maximum pt for the photons
 -1  = ptlmax    ! maximum pt for the charged leptons
 -1  = missetmax ! maximum missing Et (sum of neutrino's momenta)
#*********************************************************************
# Minimum and maximum E's (in the center of mass frame)              *
#*********************************************************************
  0  = ej     ! minimum E for the jets 
  0  = eb     ! minimum E for the b 
  0  = ea     ! minimum E for the photons 
  0  = el     ! minimum E for the charged leptons 
 -1   = ejmax ! maximum E for the jets
 -1   = ebmax ! maximum E for the b
 -1   = eamax ! maximum E for the photons
 -1   = elmax ! maximum E for the charged leptons
#*********************************************************************
# Maximum and minimum absolute rapidity (for max, -1 means no cut)   *
#*********************************************************************
   5  = etaj    ! max rap for the jets 
  -1  = etab    ! max rap for the b
 2.5  = etaa    ! max rap for the photons 
 2.5  = etal    ! max rap for the charged leptons 
 0.6  = etaonium ! max rap for the quarkonium states
   0  = etajmin ! min rap for the jets
   0  = etabmin ! min rap for the b
   0  = etaamin ! min rap for the photons
   0  = etalmin ! main rap for the charged leptons
#*********************************************************************
# Minimum and maximum DeltaR distance                                *
#*********************************************************************
 0.4 = drjj    ! min distance between jets 
 0   = drbb    ! min distance between b's 
 0.4 = drll    ! min distance between leptons 
 0.4 = draa    ! min distance between gammas 
 0   = drbj    ! min distance between b and jet 
 0.4 = draj    ! min distance between gamma and jet 
 0.4 = drjl    ! min distance between jet and lepton 
 0   = drab    ! min distance between gamma and b 
 0   = drbl    ! min distance between b and lepton 
 0.4 = dral    ! min distance between gamma and lepton 
 -1  = drjjmax ! max distance between jets
 -1  = drbbmax ! max distance between b's
 -1  = drllmax ! max distance between leptons
 -1  = draamax ! max distance between gammas
 -1  = drbjmax ! max distance between b and jet
 -1  = drajmax ! max distance between gamma and jet
 -1  = drjlmax ! max distance between jet and lepton
 -1  = drabmax ! max distance between gamma and b
 -1  = drblmax ! max distance between b and lepton
 -1  = dralmax ! maxdistance between gamma and lepton
#*********************************************************************
# Minimum and maximum invariant mass for pairs                       *
# WARNING: for four lepton final state mmll cut require to have      *
#          different lepton masses for each flavor!                  *           
#*********************************************************************
 0   = mmjj    ! min invariant mass of a jet pair 
 0   = mmbb    ! min invariant mass of a b pair 
 0   = mmaa    ! min invariant mass of gamma gamma pair
 0   = mmll    ! min invariant mass of l+l- (same flavour) lepton pair
 -1  = mmjjmax ! max invariant mass of a jet pair
 -1  = mmbbmax ! max invariant mass of a b pair
 -1  = mmaamax ! max invariant mass of gamma gamma pair
 -1  = mmllmax ! max invariant mass of l+l- (same flavour) lepton pair
#*********************************************************************
# Minimum and maximum invariant mass for all letpons                 *
#*********************************************************************
 0   = mmnl    ! min invariant mass for all letpons (l+- and vl) 
 -1  = mmnlmax ! max invariant mass for all letpons (l+- and vl) 
#*********************************************************************
# Minimum and maximum pt for 4-momenta sum of leptons                *
#*********************************************************************
 0   = ptllmin  ! Minimum pt for 4-momenta sum of leptons(l and vl)
 -1  = ptllmax  ! Maximum pt for 4-momenta sum of leptons(l and vl)
#*********************************************************************
# Inclusive cuts                                                     *
#*********************************************************************
 0  = xptj ! minimum pt for at least one jet  
 0  = xptb ! minimum pt for at least one b 
 0  = xpta ! minimum pt for at least one photon 
 0  = xptl ! minimum pt for at least one charged lepton 
#*********************************************************************
# Control the pt's of the jets sorted by pt                          *
#*********************************************************************
 0   = ptj1min ! minimum pt for the leading jet in pt
 0   = ptj2min ! minimum pt for the second jet in pt
 0   = ptj3min ! minimum pt for the third jet in pt
 0   = ptj4min ! minimum pt for the fourth jet in pt
 -1  = ptj1max ! maximum pt for the leading jet in pt 
 -1  = ptj2max ! maximum pt for the second jet in pt
 -1  = ptj3max ! maximum pt for the third jet in pt
 -1  = ptj4max ! maximum pt for the fourth jet in pt
 0   = cutuse  ! reject event if fails any (0) / all (1) jet pt cuts
#*********************************************************************
# Control the pt's of leptons sorted by pt                           *
#*********************************************************************
 0   = ptl1min ! minimum pt for the leading lepton in pt
 0   = ptl2min ! minimum pt for the second lepton in pt
 0   = ptl3min ! minimum pt for the third lepton in pt
 0   = ptl4min ! minimum pt for the fourth lepton in pt
 -1  = ptl1max ! maximum pt for the leading lepton in pt 
 -1  = ptl2max ! maximum pt for the second lepton in pt
 -1  = ptl3max ! maximum pt for the third lepton in pt
 -1  = ptl4max ! maximum pt for the fourth lepton in pt
#*********************************************************************
# Control the Ht(k)=Sum of k leading jets                            *
#*********************************************************************
 0   = htjmin ! minimum jet HT=Sum(jet pt)
 -1  = htjmax ! maximum jet HT=Sum(jet pt)
 0   = ihtmin  !inclusive Ht for all partons (including b)
 -1  = ihtmax  !inclusive Ht for all partons (including b)
 0   = ht2min ! minimum Ht for the two leading jets
 0   = ht3min ! minimum Ht for the three leading jets
 0   = ht4min ! minimum Ht for the four leading jets
 -1  = ht2max ! maximum Ht for the two leading jets
 -1  = ht3max ! maximum Ht for the three leading jets
 -1  = ht4max ! maximum Ht for the four leading jets
#***********************************************************************
# Photon-isolation cuts, according to hep-ph/9801442                   *
# When ptgmin=0, all the other parameters are ignored                  *
# When ptgmin>0, pta and draj are not going to be used                 *
#***********************************************************************
   0 = ptgmin ! Min photon transverse momentum
 0.4 = R0gamma ! Radius of isolation code
 1.0 = xn ! n parameter of eq.(3.4) in hep-ph/9801442
 1.0 = epsgamma ! epsilon_gamma parameter of eq.(3.4) in hep-ph/9801442
 .true. = isoEM ! isolate photons from EM energy (photons and leptons)
#*********************************************************************
# WBF cuts                                                           *
#*********************************************************************
 0   = xetamin ! minimum rapidity for two jets in the WBF case  
 0   = deltaeta ! minimum rapidity for two jets in the WBF case 
#*********************************************************************
# KT DURHAM CUT                                                      *
#*********************************************************************
 -1    =  ktdurham        
 0.4  =  dparameter 
#*********************************************************************
# maximal pdg code for quark to be considered as a light jet         *
# (otherwise b cuts are applied)                                     *
#*********************************************************************
 4 = maxjetflavor    ! Maximum jet pdg code
#*********************************************************************
# Jet measure cuts                                                   *
#*********************************************************************
 0   = xqcut   ! minimum kt jet measure between partons
#*********************************************************************
#
#*********************************************************************
# Store info for systematics studies                                 *
# WARNING: If use_syst is T, matched Pythia output is                *
#          meaningful ONLY if plotted taking matchscale              *
#          reweighting into account!                                 *
#*********************************************************************
   F  = use_syst      ! Enable systematics studies
#
#**************************************
# Parameter of the systematics study
#  will be used by SysCalc (if installed)
#**************************************                                  
#
0.5 1 2 = sys_scalefact  # factorization/renormalization scale factor
0.5 1 2 = sys_alpsfact  # \alpha_s emission scale factors
30 50 = sys_matchscale # variation of merging scale
# PDF sets and number of members (0 or none for all members).
CT10nlo.LHgrid = sys_pdf # matching scales
# MSTW2008nlo68cl.LHgrid 1  = sys_pdf
</MGRunCard>
<slha>
######################################################################
## PARAM_CARD AUTOMATICALY GENERATED BY MG5 FOLLOWING UFO MODEL   ####
######################################################################
##                                                                  ##
##  Width set on Auto will be computed following the information    ##
##        present in the decay.py files of the model.               ##
##        See  arXiv:1402.1178 for more details.                    ##
##                                                                  ##
######################################################################

###################################
## INFORMATION FOR CKMBLOCK
###################################
Block ckmblock 
    1 2.277360e-01 # cabi 

###################################
## INFORMATION FOR FRBLOCK
###################################
Block frblock 
    1 6.000000e-01 # gz 

###################################
## INFORMATION FOR MASS
###################################
Block mass 
    1 5.040000e-03 # MD 
    2 2.550000e-03 # MU 
    3 1.010000e-01 # MS 
    4 1.270000e+00 # MC 
    5 4.700000e+00 # MB 
    6 1.720000e+02 # MT 
   11 5.110000e-04 # Me 
   13 1.056600e-01 # MM 
   15 1.777000e+00 # MTA 
   23 9.118760e+01 # MZ 
   25 1.200000e+02 # MH 
  10030 1.700000e+03 # MZph 
  10031 3.000000e+02 # MZpl 
## Dependent parameters, given by model restrictions.
## Those values should be edited following the 
## analytical expression. MG5 ignores those values 
## but they are important for interfacing the output of MG5
## to external program such as Pythia.
  12 0.000000 # ve : 0.0 
  14 0.000000 # vm : 0.0 
  16 0.000000 # vt : 0.0 
  21 0.000000 # g : 0.0 
  22 0.000000 # a : 0.0 
  24 79.824360 # w+ : cmath.sqrt(MZ__exp__2/2. + cmath.sqrt(MZ__exp__4/4. - (aEW*cmath.pi*MZ__exp__2)/(Gf*sqrt__2))) 

###################################
## INFORMATION FOR SMINPUTS
###################################
Block sminputs 
    1 1.279000e+02 # aEWM1 
    2 1.166370e-05 # Gf 
    3 1.184000e-01 # aS 

###################################
## INFORMATION FOR YUKAWA
###################################
Block yukawa 
    1 5.040000e-03 # ymdo 
    2 2.550000e-03 # ymup 
    3 1.010000e-01 # yms 
    4 1.270000e+00 # ymc 
    5 4.700000e+00 # ymb 
    6 1.720000e+02 # ymt 
   11 5.110000e-04 # yme 
   13 1.056600e-01 # ymm 
   15 1.777000e+00 # ymtau 

###################################
## INFORMATION FOR DECAY
###################################
DECAY   6 1.508336e+00 # WT 
DECAY  23 2.495200e+00 # WZ 
DECAY  24 2.085000e+00 # WW 
DECAY  25 5.753088e-03 # WH 
## Dependent parameters, given by model restrictions.
## Those values should be edited following the 
## analytical expression. MG5 ignores those values 
## but they are important for interfacing the output of MG5
## to external program such as Pythia.
DECAY  1 0.000000 # d : 0.0 
DECAY  2 0.000000 # u : 0.0 
DECAY  3 0.000000 # s : 0.0 
DECAY  4 0.000000 # c : 0.0 
DECAY  5 0.000000 # b : 0.0 
DECAY  11 0.000000 # e- : 0.0 
DECAY  12 0.000000 # ve : 0.0 
DECAY  13 0.000000 # mu- : 0.0 
DECAY  14 0.000000 # vm : 0.0 
DECAY  15 0.000000 # ta- : 0.0 
DECAY  16 0.000000 # vt : 0.0 
DECAY  21 0.000000 # g : 0.0 
DECAY  22 0.000000 # a : 0.0 
DECAY  10030 0.308725 # zph : (gz__exp__2*MZph*(5 + cmath.sqrt(1 - (4*MT__exp__2)/MZph__exp__2)))/(144.*cmath.pi) 
DECAY  10031 0.132629 # zpl : (5*gz__exp__2*MZpl)/(144.*cmath.pi) 
#===========================================================
# QUANTUM NUMBERS OF NEW STATE(S) (NON SM PDG CODE)
#===========================================================

Block QNUMBERS 10030  # zph 
        1 0  # 3 times electric charge
        2 3  # number of spin states (2S+1)
        3 1  # colour rep (1: singlet, 3: triplet, 8: octet)
        4 0  # Particle/Antiparticle distinction (0=own anti)
Block QNUMBERS 10031  # zpl 
        1 0  # 3 times electric charge
        2 3  # number of spin states (2S+1)
        3 1  # colour rep (1: singlet, 3: triplet, 8: octet)
        4 0  # Particle/Antiparticle distinction (0=own anti)
</slha>
## END BANNER##
<MGGenerationInfo>
#  Number of Events        :         3931
#  Integrated weight (pb)  :  0.37767E-01
#  Max wgt                 :  0.13939E-04
#  Average wgt             :  0.96075E-05
</MGGenerationInfo>
</header>
<init>
     2212     2212  0.40000000000E+04  0.40000000000E+04 0 0  247000  247000 2   1
  0.37806771866E-01  0.83259587196E-04  0.13938700000E-04   0
</init>
<event>
 5   0  0.1255362E-04  0.1694810E+04  0.7818609E-02  0.8764330E-01
       -2   -1    0    0    0  501  0.00000000000E+00  0.00000000000E+00  0.61479027655E+03  0.61479027656E+03  0.25500000920E-02 0. -1.
        2   -1    0    0  501    0  0.00000000000E+00  0.00000000000E+00 -0.11680331938E+04  0.11680331938E+04  0.25500000920E-02 0.  1.
    10030    2    1    2    0    0  0.00000000000E+00  0.00000000000E+00 -0.55324291728E+03  0.17828234704E+04  0.16948102552E+04 0.  0.
        1    1    3    3  502    0  0.27102513892E+03 -0.49126787228E+03 -0.94465704013E+03  0.10987154644E+04  0.50400001928E-02 0.  1.
       -1    1    3    3    0  502 -0.27102513892E+03  0.49126787228E+03  0.39141412284E+03  0.68410800598E+03  0.50400001928E-02 0. -1.
</event>
<event>
 5   0  0.1255362E-04  0.1695179E+04  0.7818609E-02  0.8764119E-01
        2   -1    0    0  501    0  0.00000000000E+00  0.00000000000E+00  0.13923343518E+04  0.13923343518E+04  0.25500000920E-02 0. -1.
       -2   -1    0    0    0  501  0.00000000000E+00  0.00000000000E+00 -0.51597381702E+03  0.51597381702E+03  0.25500000920E-02 0.  1.
    10030    2    1    2    0    0  0.00000000000E+00  0.00000000000E+00  0.87636053480E+03  0.19083081688E+04  0.16951791293E+04 0.  0.
        1    1    3    3  502    0  0.22567439434E+03  0.53915404611E+03 -0.25282885285E+03  0.63681900612E+03  0.50400001928E-02 0.  1.
       -1    1    3    3    0  502 -0.22567439434E+03 -0.53915404611E+03  0.11291893877E+04  0.12714891627E+04  0.50400001928E-02 0. -1.
</event>
<event>
 5   0  0.1393870E-04  0.1714017E+04  0.7818609E-02  0.8753410E-01
        2   -1    0    0  501    0  0.00000000000E+00  0.00000000000E+00  0.57962734226E+03  0.57962734227E+03  0.25500000920E-02 0. -1.
       -2   -1    0    0    0  501  0.00000000000E+00  0.00000000000E+00 -0.12671307679E+04  0.12671307679E+04  0.25500000920E-02 0.  1.
    10030    2    1    2    0    0  0.00000000000E+00  0.00000000000E+00 -0.68750342564E+03  0.18467581102E+04  0.17140170820E+04 0.  0.
        3    1    3    3  502    0 -0.77870333938E+02  0.56151081630E+03 -0.10362605629E+04  0.11811833685E+04  0.10100000352E+00 0.  1.
       -3    1    3    3    0  502  0.77870333938E+02 -0.56151081630E+03  0.34875713724E+03  0.66557474164E+03  0.10100000352E+00 0. -1.
</event>
<event>
 5   0  0.1255362E-04  0.1692751E+04  0.7818609E-02  0.8765510E-01
        2   -1    0    0  501    0  0.00000000000E+00  0.00000000000E+00  0.16521855423E+04  0.16521855423E+04  0.25500000920E-02 0.  1.
       -2   -1    0    0    0  501  0.00000000000E+00  0.00000000000E+00 -0.43357790216E+03  0.43357790216E+03  0.25500000920E-02 0. -1.
    10030    2    1    2    0    0  0.00000000000E+00  0.00000000000E+00  0.12186076401E+04  0.20857634444E+04  0.16927505917E+04 0.  0.
        1    1    3    3  502    0  0.78573298118E+03  0.22813239182E+03  0.87623503882E+03  0.11988363313E+04  0.50400001928E-02 0. -1.
       -1    1    3    3    0  502 -0.78573298118E+03 -0.22813239182E+03  0.34237260130E+03  0.88692711316E+03  0.50400001928E-02 0.  1.
</event>
<event>
 5   0  0.1393870E-04  0.1699135E+04  0.7818609E-02  0.8761858E-01
       -2   -1    0    0    0  501  0.00000000000E+00  0.00000000000E+00  0.33818302695E+03  0.33818302696E+03  0.25500000920E-02 0.  1.
        2   -1    0    0  501    0  0.00000000000E+00  0.00000000000E+00 -0.21342427689E+04  0.21342427689E+04  0.25500000920E-02 0. -1.
    10030    2    1    2    0    0  0.00000000000E+00  0.00000000000E+00 -0.17960597420E+04  0.24724257959E+04  0.16991346973E+04 0.  0.
        3    1    3    3  502    0 -0.86690849947E+02  0.54994741461E+03  0.35745530841E+02  0.55788458975E+03  0.10100000352E+00 0.  1.
       -3    1    3    3    0  502  0.86690849947E+02 -0.54994741461E+03 -0.18318052728E+04  0.19145412061E+04  0.10100000352E+00 0. -1.
</event>
<event>
 5   0  0.6601906E-05  0.1698978E+04  0.7818609E-02  0.8761948E-01
       -1   -1    0    0    0  501  0.00000000000E+00  0.00000000000E+00  0.62488306561E+03  0.62488306563E+03  0.50400001928E-02 0. -1.
        1   -1    0    0  501    0  0.00000000000E+00  0.00000000000E+00 -0.11548263012E+04  0.11548263012E+04  0.50400001928E-02 0.  1.
    10030    2    1    2    0    0  0.00000000000E+00  0.00000000000E+00 -0.52994323562E+03  0.17797093669E+04  0.16989778096E+04 0.  0.
        1    1    3    3  502    0  0.82540817125E+03  0.13525470157E+03 -0.42048096329E+03  0.93616062937E+03  0.50400001928E-02 0. -1.
       -1    1    3    3    0  502 -0.82540817125E+03 -0.13525470157E+03 -0.10946227233E+03  0.84354873751E+03  0.50400001928E-02 0.  1.
</event>
<event>
 5   0  0.6615842E-05  0.1641049E+04  0.7818609E-02  0.8795720E-01
       -1   -1    0    0    0  501  0.00000000000E+00  0.00000000000E+00  0.78773269330E+03  0.78773269331E+03  0.50400001928E-02 0.  1.
        1   -1    0    0  501    0  0.00000000000E+00  0.00000000000E+00 -0.85468107613E+03  0.85468107614E+03  0.50400001928E-02 0. -1.
    10030    2    1    2    0    0  0.00000000000E+00  0.00000000000E+00 -0.66948382830E+02  0.16424137695E+04  0.16410487208E+04 0.  0.
        3    1    3    3  502    0  0.22004656869E+03  0.38568911380E+03 -0.72403627202E+03  0.84935570776E+03  0.10100000352E+00 0. -1.
       -3    1    3    3    0  502 -0.22004656869E+03 -0.38568911380E+03  0.65708788919E+03  0.79305806169E+03  0.10100000352E+00 0.  1.
</event>
<event>
 5   0  0.1255362E-04  0.1680388E+04  0.7818609E-02  0.8772630E-01
       -2   -1    0    0    0  501  0.00000000000E+00  0.00000000000E+00  0.81852251704E+03  0.81852251704E+03  0.25500000920E-02 0.  1.
        2   -1    0    0  501    0  0.00000000000E+00  0.00000000000E+00 -0.86243893362E+03  0.86243893363E+03  0.25500000920E-02 0. -1.
    10030    2    1    2    0    0  0.00000000000E+00  0.00000000000E+00 -0.43916416586E+02  0.16809614507E+04  0.16803876776E+04 0.  0.
        1    1    3    3  502    0 -0.39770965549E+03 -0.46632223427E+03 -0.59686854058E+03  0.85550070193E+03  0.50400001928E-02 0. -1.
       -1    1    3    3    0  502  0.39770965549E+03  0.46632223427E+03  0.55295212400E+03  0.82546074873E+03  0.50400001928E-02 0.  1.
</event>
<event>
 5   0  0.6539134E-05  0.1703832E+04  0.7818609E-02  0.8759182E-01
       -1   -1    0    0    0  501  0.00000000000E+00  0.00000000000E+00  0.40307135205E+03  0.40307135208E+03  0.50400001928E-02 0.  1.
        1   -1    0    0  501    0  0.00000000000E+00  0.00000000000E+00 -0.18005761045E+04  0.18005761045E+04  0.50400001928E-02 0. -1.
    10030    2    1    2    0    0  0.00000000000E+00  0.00000000000E+00 -0.13975047525E+04  0.22036474566E+04  0.17038317346E+04 0.  0.
        2    1    3    3  502    0  0.59174753329E+03  0.28678708595E+03  0.17465513631E+01  0.65758271440E+03  0.25500000920E-02 0.  1.
       -2    1    3    3    0  502 -0.59174753329E+03 -0.28678708595E+03 -0.13992513038E+04  0.15460647422E+04  0.25500000920E-02 0. -1.
</event>
<event>
 5   0  0.1255362E-04  0.1688899E+04  0.7818609E-02  0.8767721E-01
        2   -1    0    0  501    0  0.00000000000E+00  0.00000000000E+00  0.10919283325E+04  0.10919283325E+04  0.25500000920E-02 0. -1.
       -2   -1    0    0    0  501  0.00000000000E+00  0.00000000000E+00 -0.65306020222E+03  0.65306020222E+03  0.25500000920E-02 0.  1.
    10030    2    1    2    0    0  0.00000000000E+00  0.00000000000E+00  0.43886813030E+03  0.17449885347E+04  0.16888989758E+04 0.  0.
        1    1    3    3  502    0 -0.36846577212E+03 -0.61210244327E+03  0.68456082858E+03  0.98947458498E+03  0.50400001928E-02 0. -1.
       -1    1    3    3    0  502  0.36846577212E+03  0.61210244327E+03 -0.24569269827E+03  0.75551394977E+03  0.50400001928E-02 0.  1.
</event>
<event>
 5   0  0.4720875E-05  0.1700007E+04  0.7818609E-02  0.8761360E-01
        4   -1    0    0  501    0  0.00000000000E+00  0.00000000000E+00  0.69759281690E+03  0.69759397295E+03  0.12699999809E+01 0. -1.
       -4   -1    0    0    0  501  0.00000000000E+00  0.00000000000E+00 -0.10357108576E+04  0.10357116363E+04  0.12699999809E+01 0.  1.
    10030    2    1    2    0    0  0.00000000000E+00  0.00000000000E+00 -0.33811804074E+03  0.17333056092E+04  0.17000072134E+04 0.  0.
        5    1    3    3  502    0 -0.22762345070E+03 -0.40882907286E+03 -0.89255683574E+03  0.10077864065E+04  0.46999998093E+01 0.  1.
       -5    1    3    3    0  502  0.22762345070E+03  0.40882907286E+03  0.55443879499E+03  0.72551920272E+03  0.46999998093E+01 0. -1.
</event>
<event>
 5   0  0.1333546E-04  0.1700270E+04  0.7818609E-02  0.8761211E-01
        2   -1    0    0  501    0  0.00000000000E+00  0.00000000000E+00  0.76931829639E+03  0.76931829639E+03  0.25500000920E-02 0. -1.
       -2   -1    0    0    0  501  0.00000000000E+00  0.00000000000E+00 -0.93944095449E+03  0.93944095449E+03  0.25500000920E-02 0.  1.
    10030    2    1    2    0    0  0.00000000000E+00  0.00000000000E+00 -0.17012265810E+03  0.17087592509E+04  0.17002695253E+04 0.  0.
        5    1    3    3  502    0 -0.67002214973E+03  0.52186230470E+03 -0.12315943201E+03  0.85817264107E+03  0.46999998093E+01 0.  1.
       -5    1    3    3    0  502  0.67002214973E+03 -0.52186230470E+03 -0.46963226086E+02  0.85058660981E+03  0.46999998093E+01 0. -1.
</event>
<event>
 5   0  0.6834837E-05  0.1615707E+04  0.7818609E-02  0.8810956E-01
        1   -1    0    0  501    0  0.00000000000E+00  0.00000000000E+00  0.14409532619E+04  0.14409532619E+04  0.50400001928E-02 0. -1.
       -1   -1    0    0    0  501  0.00000000000E+00  0.00000000000E+00 -0.45291341786E+03  0.45291341789E+03  0.50400001928E-02 0.  1.
    10030    2    1    2    0    0  0.00000000000E+00  0.00000000000E+00  0.98803984403E+03  0.18938666798E+04  0.16157067393E+04 0.  0.
        5    1    3    3  502    0 -0.60746652132E+03  0.97549784355E+02  0.11076693641E+04  0.12670773635E+04  0.46999998093E+01 0. -1.
       -5    1    3    3    0  502  0.60746652132E+03 -0.97549784355E+02 -0.11962952005E+03  0.62678931630E+03  0.46999998093E+01 0.  1.
</event>
<event>
 5   0  0.6601906E-05  0.1694303E+04  0.7818609E-02  0.8764620E-01
        1   -1    0    0  501    0  0.00000000000E+00  0.00000000000E+00  0.30770464894E+03  0.30770464898E+03  0.50400001928E-02 0.  1.
       -1   -1    0    0    0  501  0.00000000000E+00  0.00000000000E+00 -0.23323207398E+04  0.23323207398E+04  0.50400001928E-02 0. -1.
    10030    2    1    2    0    0  0.00000000000E+00  0.00000000000E+00 -0.20246160908E+04  0.26400253888E+04  0.16943033194E+04 0.  0.
        1    1    3    3  502    0 -0.76930234043E+03  0.34527881850E+03 -0.88550665284E+03  0.12227696372E+04  0.50400001928E-02 0.  1.
       -1    1    3    3    0  502  0.76930234043E+03 -0.34527881850E+03 -0.11391094380E+04  0.14172557515E+04  0.50400001928E-02 0. -1.
</event>
<event>
 5   0  0.6615842E-05  0.1700324E+04  0.7818609E-02  0.8761179E-01
       -1   -1    0    0    0  501  0.00000000000E+00  0.00000000000E+00  0.67665009123E+03  0.67665009125E+03  0.50400001928E-02 0. -1.
        1   -1    0    0  501    0  0.00000000000E+00  0.00000000000E+00 -0.10681674291E+04  0.10681674291E+04  0.50400001928E-02 0.  1.
    10030    2    1    2    0    0  0.00000000000E+00  0.00000000000E+00 -0.39151733787E+03  0.17448175204E+04  0.17003241907E+04 0.  0.
        3    1    3    3  502    0 -0.39938238049E+03  0.43088769325E+03 -0.82633432255E+03  0.10139028123E+04  0.10100000352E+00 0.  1.
       -3    1    3    3    0  502  0.39938238049E+03 -0.43088769325E+03  0.43481698468E+03  0.73091470802E+03  0.10100000352E+00 0. -1.
</event>
<event>
 5   0  0.6615842E-05  0.1707026E+04  0.7818609E-02  0.8757367E-01
       -1   -1    0    0    0  501  0.00000000000E+00  0.00000000000E+00  0.67614686775E+03  0.67614686777E+03  0.50400001928E-02 0.  1.
        1   -1    0    0  501    0  0.00000000000E+00  0.00000000000E+00 -0.10774062454E+04  0.10774062454E+04  0.50400001928E-02 0. -1.
    10030    2    1    2    0    0  0.00000000000E+00  0.00000000000E+00 -0.40125937764E+03  0.17535531132E+04  0.17070264885E+04 0.  0.
        3    1    3    3  502    0 -0.57903533218E+03  0.58257100226E+03 -0.43893083852E+03  0.93130616866E+03  0.10100000352E+00 0. -1.
       -3    1    3    3    0  502  0.57903533218E+03 -0.58257100226E+03  0.37671460873E+02  0.82224694451E+03  0.10100000352E+00 0.  1.
</event>
<event>
 5   0  0.1255362E-04  0.1701165E+04  0.7818609E-02  0.8760700E-01
       -2   -1    0    0    0  501  0.00000000000E+00  0.00000000000E+00  0.29898377674E+03  0.29898377675E+03  0.25500000920E-02 0.  1.
        2   -1    0    0  501    0  0.00000000000E+00  0.00000000000E+00 -0.24198322958E+04  0.24198322958E+04  0.25500000920E-02 0. -1.
    10030    2    1    2    0    0  0.00000000000E+00  0.00000000000E+00 -0.21208485191E+04  0.27188160726E+04  0.17011650113E+04 0.  0.
        1    1    3    3  502    0  0.73138114589E+03  0.16083013808E+03 -0.17050906331E+04  0.18622885869E+04  0.50400001928E-02 0. -1.
       -1    1    3    3    0  502 -0.73138114589E+03 -0.16083013808E+03 -0.41575788598E+03  0.85652748564E+03  0.50400001928E-02 0.  1.
</event>
<event>
 5   0  0.6564887E-05  0.1695273E+04  0.7818609E-02  0.8764065E-01
        1   -1    0    0  501    0  0.00000000000E+00  0.00000000000E+00  0.17409195693E+04  0.17409195693E+04  0.50400001928E-02 0. -1.
       -1   -1    0    0    0  501  0.00000000000E+00  0.00000000000E+00 -0.41270601454E+03  0.41270601457E+03  0.50400001928E-02 0.  1.
    10030    2    1    2    0    0  0.00000000000E+00  0.00000000000E+00  0.13282135548E+04  0.21536255839E+04  0.16952734023E+04 0.  0.
        4    1    3    3  502    0 -0.70619495766E+03  0.32599957853E+03  0.23612321950E+03  0.81286089284E+03  0.12699999809E+01 0.  1.
       -4    1    3    3    0  502  0.70619495766E+03 -0.32599957853E+03  0.10920903353E+04  0.13407646910E+04  0.12699999809E+01 0. -1.
</event>
<event>
 5   0  0.6601906E-05  0.1693548E+04  0.7818609E-02  0.8765053E-01
       -1   -1    0    0    0  501  0.00000000000E+00  0.00000000000E+00  0.17883112208E+04  0.17883112208E+04  0.50400001928E-02 0. -1.
        1   -1    0    0  501    0  0.00000000000E+00  0.00000000000E+00 -0.40095149751E+03  0.40095149754E+03  0.50400001928E-02 0.  1.
    10030    2    1    2    0    0  0.00000000000E+00  0.00000000000E+00  0.13873597233E+04  0.21892627184E+04  0.16935478287E+04 0.  0.
        1    1    3    3  502    0 -0.39760321390E+03 -0.62312995459E+03  0.15966972985E+03  0.75622329947E+03  0.50400001928E-02 0.  1.
       -1    1    3    3    0  502  0.39760321390E+03  0.62312995459E+03  0.12276899935E+04  0.14330394189E+04  0.50400001928E-02 0. -1.
</event>
<event>
 5   0  0.1269175E-04  0.1687204E+04  0.7818609E-02  0.8768696E-01
        2   -1    0    0  501    0  0.00000000000E+00  0.00000000000E+00  0.14656693711E+04  0.14656693711E+04  0.25500000920E-02 0.  1.
       -2   -1    0    0    0  501  0.00000000000E+00  0.00000000000E+00 -0.48555566868E+03  0.48555566868E+03  0.25500000920E-02 0. -1.
    10030    2    1    2    0    0  0.00000000000E+00  0.00000000000E+00  0.98011370240E+03  0.19512250398E+04  0.16872036884E+04 0.  0.
        2    1    3    3  502    0 -0.20592606767E+03 -0.17349195822E+03 -0.43452277960E+03  0.51118983842E+03  0.25500000920E-02 0. -1.
       -2    1    3    3    0  502  0.20592606767E+03  0.17349195822E+03  0.14146364820E+04  0.14400352013E+04  0.25500000920E-02 0.  1.
</event>
<event>
 5   0  0.6615842E-05  0.1699019E+04  0.7818609E-02  0.8761924E-01
       -1   -1    0    0    0  501  0.00000000000E+00  0.00000000000E+00  0.52978587672E+03  0.52978587675E+03  0.50400001928E-02 0. -1.
        1   -1    0    0  501    0  0.00000000000E+00  0.00000000000E+00 -0.13621847394E+04  0.13621847394E+04  0.50400001928E-02 0.  1.
    10030    2    1    2    0    0  0.00000000000E+00  0.00000000000E+00 -0.83239886267E+03  0.18919706161E+04  0.16990188185E+04 0.  0.
        3    1    3    3  502    0 -0.73036024735E+03  0.43358438435E+03 -0.43361943536E+03  0.95364948182E+03  0.10100000352E+00 0. -1.
       -3    1    3    3    0  502  0.73036024735E+03 -0.43358438435E+03 -0.39877942731E+03  0.93832113432E+03  0.10100000352E+00 0.  1.
</event>
<event>
 5   0  0.1393870E-04  0.1701247E+04  0.7818609E-02  0.8760653E-01
       -2   -1    0    0    0  501  0.00000000000E+00  0.00000000000E+00  0.99473873689E+03  0.99473873689E+03  0.25500000920E-02 0.  1.
        2   -1    0    0  501    0  0.00000000000E+00  0.00000000000E+00 -0.72738727124E+03  0.72738727124E+03  0.25500000920E-02 0. -1.
    10030    2    1    2    0    0  0.00000000000E+00  0.00000000000E+00  0.26735146565E+03  0.17221260081E+04  0.17012469491E+04 0.  0.
        3    1    3    3  502    0  0.52700760660E+03  0.65063804039E+03 -0.18142942808E+02  0.83749391258E+03  0.10100000352E+00 0. -1.
       -3    1    3    3    0  502 -0.52700760660E+03 -0.65063804039E+03  0.28549440846E+03  0.88463209556E+03  0.10100000352E+00 0.  1.
</event>
<event>
 5   0  0.6601906E-05  0.1699809E+04  0.7818609E-02  0.8761473E-01
       -1   -1    0    0    0  501  0.00000000000E+00  0.00000000000E+00  0.86716121228E+03  0.86716121229E+03  0.50400001928E-02 0. -1.
        1   -1    0    0  501    0  0.00000000000E+00  0.00000000000E+00 -0.83299163485E+03  0.83299163486E+03  0.50400001928E-02 0.  1.
    10030    2    1    2    0    0  0.00000000000E+00  0.00000000000E+00  0.34169577429E+02  0.17001528472E+04  0.16998094433E+04 0.  0.
        1    1    3    3  502    0 -0.49207801458E+03  0.61158312194E+03  0.34297778959E+03  0.85662620300E+03  0.50400001928E-02 0. -1.
       -1    1    3    3    0  502  0.49207801458E+03 -0.61158312194E+03 -0.30880821216E+03  0.84352664416E+03  0.50400001928E-02 0.  1.
</event>
<event>
 5   0  0.1269175E-04  0.1704207E+04  0.7818609E-02  0.8758969E-01
       -2   -1    0    0    0  501  0.00000000000E+00  0.00000000000E+00  0.74958506865E+03  0.74958506865E+03  0.25500000920E-02 0.  1.
        2   -1    0    0  501    0  0.00000000000E+00  0.00000000000E+00 -0.96864258443E+03  0.96864258443E+03  0.25500000920E-02 0. -1.
    10030    2    1    2    0    0  0.00000000000E+00  0.00000000000E+00 -0.21905751578E+03  0.17182276531E+04  0.17042065815E+04 0.  0.
        2    1    3    3  502    0 -0.86567761731E+02 -0.13649567816E+03 -0.95304513131E+03  0.96665405903E+03  0.25500000920E-02 0. -1.
       -2    1    3    3    0  502  0.86567761731E+02  0.13649567816E+03  0.73398761552E+03  0.75157359405E+03  0.25500000920E-02 0.  1.
</event>
<event>
 5   0  0.6539134E-05  0.1698634E+04  0.7818609E-02  0.8762144E-01
        1   -1    0    0  501    0  0.00000000000E+00  0.00000000000E+00  0.10844671939E+04  0.10844671939E+04  0.50400001928E-02 0.  1.
       -1   -1    0    0    0  501  0.00000000000E+00  0.00000000000E+00 -0.66515581758E+03  0.66515581760E+03  0.50400001928E-02 0. -1.
    10030    2    1    2    0    0  0.00000000000E+00  0.00000000000E+00  0.41931137634E+03  0.17496230115E+04  0.16986343492E+04 0.  0.
        2    1    3    3  502    0  0.19556553031E+03  0.74754975737E+03 -0.15343553699E+03  0.78779374230E+03  0.25500000920E-02 0. -1.
       -2    1    3    3    0  502 -0.19556553031E+03 -0.74754975737E+03  0.57274691333E+03  0.96182926922E+03  0.25500000920E-02 0.  1.
</event>
<event>
 5   0  0.1393870E-04  0.1702851E+04  0.7818609E-02  0.8759740E-01
        2   -1    0    0  501    0  0.00000000000E+00  0.00000000000E+00  0.84750226156E+03  0.84750226156E+03  0.25500000920E-02 0. -1.
       -2   -1    0    0    0  501  0.00000000000E+00  0.00000000000E+00 -0.85536685277E+03  0.85536685277E+03  0.25500000920E-02 0.  1.
    10030    2    1    2    0    0  0.00000000000E+00  0.00000000000E+00 -0.78645912090E+01  0.17028691143E+04  0.17028509532E+04 0.  0.
        3    1    3    3  502    0 -0.49799681941E+02  0.11095263902E+03 -0.84663626677E+03  0.85532653112E+03  0.10100000352E+00 0.  1.
       -3    1    3    3    0  502  0.49799681941E+02 -0.11095263902E+03  0.83877167556E+03  0.84754258321E+03  0.10100000352E+00 0. -1.
</event>
<event>
 5   0  0.1333546E-04  0.1711224E+04  0.7818609E-02  0.8754989E-01
        2   -1    0    0  501    0  0.00000000000E+00  0.00000000000E+00  0.20839265650E+04  0.20839265650E+04  0.25500000920E-02 0. -1.
       -2   -1    0    0    0  501  0.00000000000E+00  0.00000000000E+00 -0.35129431236E+03  0.35129431237E+03  0.25500000920E-02 0.  1.
    10030    2    1    2    0    0  0.00000000000E+00  0.00000000000E+00  0.17326322526E+04  0.24352208774E+04  0.17112235969E+04 0.  0.
        5    1    3    3  502    0 -0.12401185866E+03 -0.75023750611E+03  0.14244389950E+04  0.16147085796E+04  0.46999998093E+01 0. -1.
       -5    1    3    3    0  502  0.12401185866E+03  0.75023750611E+03  0.30819325761E+03  0.82051229771E+03  0.46999998093E+01 0.  1.
</event>
<event>
 5   0  0.6539134E-05  0.1706926E+04  0.7818609E-02  0.8757424E-01
        1   -1    0    0  501    0  0.00000000000E+00  0.00000000000E+00  0.91634887879E+03  0.91634887880E+03  0.50400001928E-02 0.  1.
       -1   -1    0    0    0  501  0.00000000000E+00  0.00000000000E+00 -0.79489237484E+03  0.79489237485E+03  0.50400001928E-02 0. -1.
    10030    2    1    2    0    0  0.00000000000E+00  0.00000000000E+00  0.12145650395E+03  0.17112412537E+04  0.17069255830E+04 0.  0.
        2    1    3    3  502    0  0.31193637165E+03  0.66346531415E+03 -0.37730689685E+03  0.82453078624E+03  0.25500000920E-02 0. -1.
       -2    1    3    3    0  502 -0.31193637165E+03 -0.66346531415E+03  0.49876340080E+03  0.88671046741E+03  0.25500000920E-02 0.  1.
</event>
<event>
 5   0  0.1393870E-04  0.1684024E+04  0.7818609E-02  0.8770529E-01
       -2   -1    0    0    0  501  0.00000000000E+00  0.00000000000E+00  0.49410246831E+03  0.49410246832E+03  0.25500000920E-02 0. -1.
        2   -1    0    0  501    0  0.00000000000E+00  0.00000000000E+00 -0.14348938226E+04  0.14348938226E+04  0.25500000920E-02 0.  1.
    10030    2    1    2    0    0  0.00000000000E+00  0.00000000000E+00 -0.94079135426E+03  0.19289962909E+04  0.16840244410E+04 0.  0.
        3    1    3    3  502    0 -0.49161388264E+02  0.42287071472E+03  0.36174420234E+03  0.55865495754E+03  0.10100000352E+00 0. -1.
       -3    1    3    3    0  502  0.49161388264E+02 -0.42287071472E+03 -0.13025355566E+04  0.13703413333E+04  0.10100000352E+00 0.  1.
</event>
<event>
 5   0  0.1255362E-04  0.1699013E+04  0.7818609E-02  0.8761927E-01
        2   -1    0    0  501    0  0.00000000000E+00  0.00000000000E+00  0.11808070595E+04  0.11808070595E+04  0.25500000920E-02 0. -1.
       -2   -1    0    0    0  501  0.00000000000E+00  0.00000000000E+00 -0.61115970386E+03  0.61115970386E+03  0.25500000920E-02 0.  1.
    10030    2    1    2    0    0  0.00000000000E+00  0.00000000000E+00  0.56964735565E+03  0.17919667634E+04  0.16990134700E+04 0.  0.
        1    1    3    3  502    0  0.44690314258E+03 -0.19941190265E+03 -0.44755399791E+03  0.66316823419E+03  0.50400001928E-02 0.  1.
       -1    1    3    3    0  502 -0.44690314258E+03  0.19941190265E+03  0.10172013536E+04  0.11287985292E+04  0.50400001928E-02 0. -1.
</event>
<event>
 5   0  0.6834837E-05  0.1703301E+04  0.7818609E-02  0.8759484E-01
        1   -1    0    0  501    0  0.00000000000E+00  0.00000000000E+00  0.52174765765E+03  0.52174765767E+03  0.50400001928E-02 0.  1.
       -1   -1    0    0    0  501  0.00000000000E+00  0.00000000000E+00 -0.13901512889E+04  0.13901512889E+04  0.50400001928E-02 0. -1.
    10030    2    1    2    0    0  0.00000000000E+00  0.00000000000E+00 -0.86840363129E+03  0.19118989466E+04  0.17033005358E+04 0.  0.
        5    1    3    3  502    0 -0.66248209856E+03  0.53057601673E+03 -0.51271555345E+03  0.99161119860E+03  0.46999998093E+01 0. -1.
       -5    1    3    3    0  502  0.66248209856E+03 -0.53057601673E+03 -0.35568807784E+03  0.92028774802E+03  0.46999998093E+01 0.  1.
</event>
<event>
 5   0  0.1393870E-04  0.1715515E+04  0.7818609E-02  0.8752565E-01
        2   -1    0    0  501    0  0.00000000000E+00  0.00000000000E+00  0.58493253665E+03  0.58493253665E+03  0.25500000920E-02 0.  1.
       -2   -1    0    0    0  501  0.00000000000E+00  0.00000000000E+00 -0.12578343412E+04  0.12578343412E+04  0.25500000920E-02 0. -1.
    10030    2    1    2    0    0  0.00000000000E+00  0.00000000000E+00 -0.67290180451E+03  0.18427668778E+04  0.17155153533E+04 0.  0.
        3    1    3    3  502    0  0.41894061932E+02 -0.11783512379E+03  0.57508673238E+03  0.58852781479E+03  0.10100000352E+00 0.  1.
       -3    1    3    3    0  502 -0.41894061932E+02  0.11783512379E+03 -0.12479885369E+04  0.12542390630E+04  0.10100000352E+00 0. -1.
</event>
<event>
 5   0  0.6564887E-05  0.1706112E+04  0.7818609E-02  0.8757886E-01
       -1   -1    0    0    0  501  0.00000000000E+00  0.00000000000E+00  0.12285487550E+04  0.12285487550E+04  0.50400001928E-02 0.  1.
        1   -1    0    0  501    0  0.00000000000E+00  0.00000000000E+00 -0.59232892667E+03  0.59232892670E+03  0.50400001928E-02 0. -1.
    10030    2    1    2    0    0  0.00000000000E+00  0.00000000000E+00  0.63621982830E+03  0.18208776817E+04  0.17061124997E+04 0.  0.
        4    1    3    3  502    0  0.16141649421E+03  0.55117243026E+03 -0.35507848103E+03  0.67522490555E+03  0.12699999809E+01 0. -1.
       -4    1    3    3    0  502 -0.16141649421E+03 -0.55117243026E+03  0.99129830933E+03  0.11456527761E+04  0.12699999809E+01 0.  1.
</event>
<event>
 5   0  0.6601906E-05  0.1699251E+04  0.7818609E-02  0.8761791E-01
        1   -1    0    0  501    0  0.00000000000E+00  0.00000000000E+00  0.67339326878E+03  0.67339326880E+03  0.50400001928E-02 0. -1.
       -1   -1    0    0    0  501  0.00000000000E+00  0.00000000000E+00 -0.10719796620E+04  0.10719796620E+04  0.50400001928E-02 0.  1.
    10030    2    1    2    0    0  0.00000000000E+00  0.00000000000E+00 -0.39858639318E+03  0.17453729308E+04  0.16992514689E+04 0.  0.
        1    1    3    3  502    0  0.17596511138E+03  0.31093952903E+02  0.65387399501E+03  0.67785083588E+03  0.50400001928E-02 0. -1.
       -1    1    3    3    0  502 -0.17596511138E+03 -0.31093952903E+02 -0.10524603882E+04  0.10675220949E+04  0.50400001928E-02 0.  1.
</event>
<event>
 5   0  0.6615842E-05  0.1690649E+04  0.7818609E-02  0.8766716E-01
        1   -1    0    0  501    0  0.00000000000E+00  0.00000000000E+00  0.10353430029E+04  0.10353430029E+04  0.50400001928E-02 0.  1.
       -1   -1    0    0    0  501  0.00000000000E+00  0.00000000000E+00 -0.69018031121E+03  0.69018031123E+03  0.50400001928E-02 0. -1.
    10030    2    1    2    0    0  0.00000000000E+00  0.00000000000E+00  0.34516269170E+03  0.17255233142E+04  0.16906488175E+04 0.  0.
        3    1    3    3  502    0  0.42478040729E+03 -0.22588363407E+03 -0.53681856593E+03  0.72085781780E+03  0.10100000352E+00 0. -1.
       -3    1    3    3    0  502 -0.42478040729E+03  0.22588363407E+03  0.88198125763E+03  0.10046654964E+04  0.10100000352E+00 0.  1.
</event>
<event>
 5   0  0.1285639E-04  0.1708084E+04  0.7818609E-02  0.8756767E-01
        2   -1    0    0  501    0  0.00000000000E+00  0.00000000000E+00  0.10161432423E+04  0.10161432423E+04  0.25500000920E-02 0. -1.
       -2   -1    0    0    0  501  0.00000000000E+00  0.00000000000E+00 -0.71779985856E+03  0.71779985856E+03  0.25500000920E-02 0.  1.
    10030    2    1    2    0    0  0.00000000000E+00  0.00000000000E+00  0.29834338375E+03  0.17339431009E+04  0.17080836930E+04 0.  0.
        4    1    3    3  502    0  0.70013628759E+03 -0.36806275995E+03 -0.17776758325E+03  0.81071816497E+03  0.12699999809E+01 0.  1.
       -4    1    3    3    0  502 -0.70013628759E+03  0.36806275995E+03  0.47611096700E+03  0.92322493590E+03  0.12699999809E+01 0. -1.
</event>
<event>
 5   0  0.1285639E-04  0.1691545E+04  0.7818609E-02  0.8766201E-01
        2   -1    0    0  501    0  0.00000000000E+00  0.00000000000E+00  0.10871295871E+04  0.10871295871E+04  0.25500000920E-02 0.  1.
       -2   -1    0    0    0  501  0.00000000000E+00  0.00000000000E+00 -0.65799981074E+03  0.65799981074E+03  0.25500000920E-02 0. -1.
    10030    2    1    2    0    0  0.00000000000E+00  0.00000000000E+00  0.42912977640E+03  0.17451293979E+04  0.16915449300E+04 0.  0.
        4    1    3    3  502    0  0.76954230706E+03  0.30002064688E+03  0.26806046071E+02  0.82639453526E+03  0.12699999809E+01 0.  1.
       -4    1    3    3    0  502 -0.76954230706E+03 -0.30002064688E+03  0.40232373033E+03  0.91873486262E+03  0.12699999809E+01 0. -1.
</event>
<event>
 5   0  0.6539134E-05  0.1696470E+04  0.7818609E-02  0.8763380E-01
       -1   -1    0    0    0  501  0.00000000000E+00  0.00000000000E+00  0.55205026033E+03  0.55205026036E+03  0.50400001928E-02 0. -1.
        1   -1    0    0  501    0  0.00000000000E+00  0.00000000000E+00 -0.13033288018E+04  0.13033288018E+04  0.50400001928E-02 0.  1.
    10030    2    1    2    0    0  0.00000000000E+00  0.00000000000E+00 -0.75127854143E+03  0.18553790621E+04  0.16964704587E+04 0.  0.
        2    1    3    3  502    0 -0.19060036586E+03 -0.27251964475E+03 -0.12290577227E+04  0.12732550184E+04  0.25500000920E-02 0.  1.
       -2    1    3    3    0  502  0.19060036586E+03  0.27251964475E+03  0.47777918124E+03  0.58212404372E+03  0.25500000920E-02 0. -1.
</event>
<event>
 5   0  0.6834837E-05  0.1704947E+04  0.7818609E-02  0.8758548E-01
        1   -1    0    0  501    0  0.00000000000E+00  0.00000000000E+00  0.81151995231E+03  0.81151995233E+03  0.50400001928E-02 0. -1.
       -1   -1    0    0    0  501  0.00000000000E+00  0.00000000000E+00 -0.89549368935E+03  0.89549368936E+03  0.50400001928E-02 0.  1.
    10030    2    1    2    0    0  0.00000000000E+00  0.00000000000E+00 -0.83973737036E+02  0.17070136417E+04  0.17049469154E+04 0.  0.
        5    1    3    3  502    0  0.21300672338E+03 -0.23909834822E+03 -0.83297556515E+03  0.89241821276E+03  0.46999998093E+01 0.  1.
       -5    1    3    3    0  502 -0.21300672338E+03  0.23909834822E+03  0.74900182811E+03  0.81459542894E+03  0.46999998093E+01 0. -1.
</event>
<event>
 5   0  0.6834837E-05  0.1702983E+04  0.7818609E-02  0.8759665E-01
        1   -1    0    0  501    0  0.00000000000E+00  0.00000000000E+00  0.96118089230E+03  0.96118089232E+03  0.50400001928E-02 0. -1.
       -1   -1    0    0    0  501  0.00000000000E+00  0.00000000000E+00 -0.75432012246E+03  0.75432012248E+03  0.50400001928E-02 0.  1.
    10030    2    1    2    0    0  0.00000000000E+00  0.00000000000E+00  0.20686076984E+03  0.17155010148E+04  0.17029833686E+04 0.  0.
        5    1    3    3  502    0 -0.32554156453E+03 -0.42987245712E+03  0.76724936472E+03  0.93779598916E+03  0.46999998093E+01 0. -1.
       -5    1    3    3    0  502  0.32554156453E+03  0.42987245712E+03 -0.56038859488E+03  0.77770502563E+03  0.46999998093E+01 0.  1.
</event>
<event>
 5   0  0.1269175E-04  0.1698210E+04  0.7818609E-02  0.8762386E-01
        2   -1    0    0  501    0  0.00000000000E+00  0.00000000000E+00  0.59238583216E+03  0.59238583217E+03  0.25500000920E-02 0.  1.
       -2   -1    0    0    0  501  0.00000000000E+00  0.00000000000E+00 -0.12170770966E+04  0.12170770966E+04  0.25500000920E-02 0. -1.
    10030    2    1    2    0    0  0.00000000000E+00  0.00000000000E+00 -0.62469126439E+03  0.18094629287E+04  0.16982099148E+04 0.  0.
        2    1    3    3  502    0 -0.22832799598E+03  0.79757368786E+03 -0.11960348446E+03  0.83818998730E+03  0.25500000920E-02 0. -1.
       -2    1    3    3    0  502  0.22832799598E+03 -0.79757368786E+03 -0.50508777994E+03  0.97127294143E+03  0.25500000920E-02 0.  1.
</event>
<event>
 5   0  0.1393870E-04  0.1675707E+04  0.7818609E-02  0.8775342E-01
       -2   -1    0    0    0  501  0.00000000000E+00  0.00000000000E+00  0.53750603305E+03  0.53750603306E+03  0.25500000920E-02 0. -1.
        2   -1    0    0  501    0  0.00000000000E+00  0.00000000000E+00 -0.13060297521E+04  0.13060297522E+04  0.25500000920E-02 0.  1.
    10030    2    1    2    0    0  0.00000000000E+00  0.00000000000E+00 -0.76852371910E+03  0.18435357852E+04  0.16757074579E+04 0.  0.
        3    1    3    3  502    0  0.77284350452E+03 -0.25626416814E+03 -0.16688625514E+03  0.83114946833E+03  0.10100000352E+00 0. -1.
       -3    1    3    3    0  502 -0.77284350452E+03  0.25626416814E+03 -0.60163746396E+03  0.10123863169E+04  0.10100000352E+00 0.  1.
</event>
<event>
 5   0  0.1255362E-04  0.1694557E+04  0.7818609E-02  0.8764475E-01
        2   -1    0    0  501    0  0.00000000000E+00  0.00000000000E+00  0.19195653766E+04  0.19195653766E+04  0.25500000920E-02 0.  1.
       -2   -1    0    0    0  501  0.00000000000E+00  0.00000000000E+00 -0.37398094141E+03  0.37398094142E+03  0.25500000920E-02 0. -1.
    10030    2    1    2    0    0  0.00000000000E+00  0.00000000000E+00  0.15455844352E+04  0.22935463181E+04  0.16945570119E+04 0.  0.
        1    1    3    3  502    0 -0.20916020850E+03 -0.69974247368E+03  0.13541475790E+04  0.15385393034E+04  0.50400001928E-02 0.  1.
       -1    1    3    3    0  502  0.20916020850E+03  0.69974247368E+03  0.19143685626E+03  0.75500701471E+03  0.50400001928E-02 0. -1.
</event>
<event>
 5   0  0.1269175E-04  0.1691035E+04  0.7818609E-02  0.8766494E-01
       -2   -1    0    0    0  501  0.00000000000E+00  0.00000000000E+00  0.48666145894E+03  0.48666145895E+03  0.25500000920E-02 0. -1.
        2   -1    0    0  501    0  0.00000000000E+00  0.00000000000E+00 -0.14689874203E+04  0.14689874203E+04  0.25500000920E-02 0.  1.
    10030    2    1    2    0    0  0.00000000000E+00  0.00000000000E+00 -0.98232596139E+03  0.19556488793E+04  0.16910346669E+04 0.  0.
        2    1    3    3  502    0 -0.84038929964E+03  0.10835948517E+02 -0.59796049987E+03  0.10314690263E+04  0.25500000920E-02 0.  1.
       -2    1    3    3    0  502  0.84038929964E+03 -0.10835948517E+02 -0.38436546152E+03  0.92417985303E+03  0.25500000920E-02 0. -1.
</event>
<event>
 5   0  0.1393870E-04  0.1699405E+04  0.7818609E-02  0.8761704E-01
       -2   -1    0    0    0  501  0.00000000000E+00  0.00000000000E+00  0.10919742781E+04  0.10919742781E+04  0.25500000920E-02 0.  1.
        2   -1    0    0  501    0  0.00000000000E+00  0.00000000000E+00 -0.66118228255E+03  0.66118228256E+03  0.25500000920E-02 0. -1.
    10030    2    1    2    0    0  0.00000000000E+00  0.00000000000E+00  0.43079199560E+03  0.17531565607E+04  0.16994046554E+04 0.  0.
        3    1    3    3  502    0  0.46113938747E+02  0.83731887994E+03  0.35671284522E+03  0.91130316921E+03  0.10100000352E+00 0.  1.
       -3    1    3    3    0  502 -0.46113938747E+02 -0.83731887994E+03  0.74079150378E+02  0.84185339150E+03  0.10100000352E+00 0. -1.
</event>
<event>
 5   0  0.6615842E-05  0.1695029E+04  0.7818609E-02  0.8764205E-01
       -1   -1    0    0    0  501  0.00000000000E+00  0.00000000000E+00  0.64548258460E+03  0.64548258462E+03  0.50400001928E-02 0. -1.
        1   -1    0    0  501    0  0.00000000000E+00  0.00000000000E+00 -0.11127812856E+04  0.11127812856E+04  0.50400001928E-02 0.  1.
    10030    2    1    2    0    0  0.00000000000E+00  0.00000000000E+00 -0.46729870098E+03  0.17582638702E+04  0.16950291329E+04 0.  0.
        3    1    3    3  502    0  0.76808424422E+03 -0.29307810305E+02  0.13669732677E+03  0.78070386403E+03  0.10100000352E+00 0. -1.
       -3    1    3    3    0  502 -0.76808424422E+03  0.29307810305E+02 -0.60399602775E+03  0.97756000619E+03  0.10100000352E+00 0.  1.
</event>
<event>
 5   0  0.1333546E-04  0.1644969E+04  0.7818609E-02  0.8793388E-01
       -2   -1    0    0    0  501  0.00000000000E+00  0.00000000000E+00  0.71427653189E+03  0.71427653190E+03  0.25500000920E-02 0.  1.
        2   -1    0    0  501    0  0.00000000000E+00  0.00000000000E+00 -0.94708492191E+03  0.94708492191E+03  0.25500000920E-02 0. -1.
    10030    2    1    2    0    0  0.00000000000E+00  0.00000000000E+00 -0.23280839002E+03  0.16613614538E+04  0.16449687334E+04 0.  0.
        5    1    3    3  502    0 -0.51300315810E+02 -0.18077242993E+03  0.69229245697E+03  0.71735718426E+03  0.46999998093E+01 0.  1.
       -5    1    3    3    0  502  0.51300315810E+02  0.18077242993E+03 -0.92510084699E+03  0.94400426955E+03  0.46999998093E+01 0. -1.
</event>
<event>
 5   0  0.6834837E-05  0.1700218E+04  0.7818609E-02  0.8761240E-01
       -1   -1    0    0    0  501  0.00000000000E+00  0.00000000000E+00  0.33270825122E+03  0.33270825125E+03  0.50400001928E-02 0. -1.
        1   -1    0    0  501    0  0.00000000000E+00  0.00000000000E+00 -0.21721292020E+04  0.21721292020E+04  0.50400001928E-02 0.  1.
    10030    2    1    2    0    0  0.00000000000E+00  0.00000000000E+00 -0.18394209508E+04  0.25048374532E+04  0.17002179957E+04 0.  0.
        5    1    3    3  502    0  0.60162320541E+03  0.49520464294E+03 -0.41905621697E+03  0.88476455775E+03  0.46999998093E+01 0. -1.
       -5    1    3    3    0  502 -0.60162320541E+03 -0.49520464294E+03 -0.14203647338E+04  0.16200728955E+04  0.46999998093E+01 0.  1.
</event>
<event>
 5   0  0.6615842E-05  0.1692505E+04  0.7818609E-02  0.8765651E-01
       -1   -1    0    0    0  501  0.00000000000E+00  0.00000000000E+00  0.12545138748E+04  0.12545138748E+04  0.50400001928E-02 0.  1.
        1   -1    0    0  501    0  0.00000000000E+00  0.00000000000E+00 -0.57085289596E+03  0.57085289598E+03  0.50400001928E-02 0. -1.
    10030    2    1    2    0    0  0.00000000000E+00  0.00000000000E+00  0.68366097880E+03  0.18253667707E+04  0.16925045092E+04 0.  0.
        3    1    3    3  502    0  0.23768307705E+03  0.40084335630E+03 -0.42000177726E+03  0.62735169124E+03  0.10100000352E+00 0. -1.
       -3    1    3    3    0  502 -0.23768307705E+03 -0.40084335630E+03  0.11036627561E+04  0.11980150795E+04  0.10100000352E+00 0.  1.
</event>
<event>
 5   0  0.1393870E-04  0.1699695E+04  0.7818609E-02  0.8761538E-01
        2   -1    0    0  501    0  0.00000000000E+00  0.00000000000E+00  0.22270381454E+04  0.22270381454E+04  0.25500000920E-02 0.  1.
       -2   -1    0    0    0  501  0.00000000000E+00  0.00000000000E+00 -0.32430570329E+03  0.32430570330E+03  0.25500000920E-02 0. -1.
    10030    2    1    2    0    0  0.00000000000E+00  0.00000000000E+00  0.19027324421E+04  0.25513438487E+04  0.16996954692E+04 0.  0.
        3    1    3    3  502    0 -0.74102042777E+03  0.39125124450E+03  0.11639257243E+04  0.14341938198E+04  0.10100000352E+00 0. -1.
       -3    1    3    3    0  502  0.74102042777E+03 -0.39125124450E+03  0.73880671778E+03  0.11171500289E+04  0.10100000352E+00 0.  1.
</event>
<event>
 5   0  0.6601906E-05  0.1699638E+04  0.7818609E-02  0.8761571E-01
       -1   -1    0    0    0  501  0.00000000000E+00  0.00000000000E+00  0.83428768230E+03  0.83428768231E+03  0.50400001928E-02 0.  1.
        1   -1    0    0  501    0  0.00000000000E+00  0.00000000000E+00 -0.86563968856E+03  0.86563968857E+03  0.50400001928E-02 0. -1.
    10030    2    1    2    0    0  0.00000000000E+00  0.00000000000E+00 -0.31352006262E+02  0.16999273709E+04  0.16996382315E+04 0.  0.
        1    1    3    3  502    0  0.46433413346E+03 -0.57922567717E+02 -0.72518467136E+03  0.86304925639E+03  0.50400001928E-02 0. -1.
       -1    1    3    3    0  502 -0.46433413346E+03  0.57922567717E+02  0.69383266510E+03  0.83687811450E+03  0.50400001928E-02 0.  1.
</event>
<event>
 5   0  0.6615842E-05  0.1692322E+04  0.7818609E-02  0.8765756E-01
       -1   -1    0    0    0  501  0.00000000000E+00  0.00000000000E+00  0.38723365085E+03  0.38723365088E+03  0.50400001928E-02 0.  1.
        1   -1    0    0  501    0  0.00000000000E+00  0.00000000000E+00 -0.18489819538E+04  0.18489819539E+04  0.50400001928E-02 0. -1.
    10030    2    1    2    0    0  0.00000000000E+00  0.00000000000E+00 -0.14617483030E+04  0.22362156047E+04  0.16923215207E+04 0.  0.
        3    1    3    3  502    0 -0.51275458075E+03 -0.43323056816E+02 -0.16184641382E+04  0.16982992446E+04  0.10100000352E+00 0. -1.
       -3    1    3    3    0  502  0.51275458075E+03  0.43323056816E+02  0.15671583519E+03  0.53791636016E+03  0.10100000352E+00 0.  1.
</event>
<event>
 5   0  0.6564887E-05  0.1696099E+04  0.7818609E-02  0.8763592E-01
       -1   -1    0    0    0  501  0.00000000000E+00  0.00000000000E+00  0.43581553324E+03  0.43581553327E+03  0.50400001928E-02 0. -1.
        1   -1    0    0  501    0  0.00000000000E+00  0.00000000000E+00 -0.16502127453E+04  0.16502127453E+04  0.50400001928E-02 0.  1.
    10030    2    1    2    0    0  0.00000000000E+00  0.00000000000E+00 -0.12143972120E+04  0.20860282785E+04  0.16960994636E+04 0.  0.
        4    1    3    3  502    0  0.64522165208E+03 -0.20852034248E+03 -0.12335956400E+04  0.14076759320E+04  0.12699999809E+01 0.  1.
       -4    1    3    3    0  502 -0.64522165208E+03  0.20852034248E+03  0.19198427991E+02  0.67835234655E+03  0.12699999809E+01 0. -1.
</event>
<event>
 5   0  0.6834837E-05  0.1703455E+04  0.7818609E-02  0.8759397E-01
       -1   -1    0    0    0  501  0.00000000000E+00  0.00000000000E+00  0.10411407581E+04  0.10411407581E+04  0.50400001928E-02 0. -1.
        1   -1    0    0  501    0  0.00000000000E+00  0.00000000000E+00 -0.69677354402E+03  0.69677354404E+03  0.50400001928E-02 0.  1.
    10030    2    1    2    0    0  0.00000000000E+00  0.00000000000E+00  0.34436721411E+03  0.17379143022E+04  0.17034545323E+04 0.  0.
        5    1    3    3  502    0  0.67342668141E+03  0.46333898145E+03  0.41625253177E+03  0.91731933762E+03  0.46999998093E+01 0. -1.
       -5    1    3    3    0  502 -0.67342668141E+03 -0.46333898145E+03 -0.71885317657E+02  0.82059496456E+03  0.46999998093E+01 0.  1.
</event>
<event>
 5   0  0.1285639E-04  0.1695714E+04  0.7818609E-02  0.8763813E-01
        2   -1    0    0  501    0  0.00000000000E+00  0.00000000000E+00  0.15230266465E+04  0.15230266465E+04  0.25500000920E-02 0.  1.
       -2   -1    0    0    0  501  0.00000000000E+00  0.00000000000E+00 -0.47199540151E+03  0.47199540151E+03  0.25500000920E-02 0. -1.
    10030    2    1    2    0    0  0.00000000000E+00  0.00000000000E+00  0.10510312450E+04  0.19950220480E+04  0.16957140956E+04 0.  0.
        4    1    3    3  502    0 -0.72215734232E+02  0.51557187557E+03  0.13128367368E+04  0.14122929518E+04  0.12699999809E+01 0.  1.
       -4    1    3    3    0  502  0.72215734232E+02 -0.51557187557E+03 -0.26180549184E+03  0.58272909624E+03  0.12699999809E+01 0. -1.
</event>
<event>
 5   0  0.1255362E-04  0.1704252E+04  0.7818609E-02  0.8758943E-01
        2   -1    0    0  501    0  0.00000000000E+00  0.00000000000E+00  0.13123945264E+04  0.13123945264E+04  0.25500000920E-02 0.  1.
       -2   -1    0    0    0  501  0.00000000000E+00  0.00000000000E+00 -0.55327808409E+03  0.55327808410E+03  0.25500000920E-02 0. -1.
    10030    2    1    2    0    0  0.00000000000E+00  0.00000000000E+00  0.75911644231E+03  0.18656726105E+04  0.17042524803E+04 0.  0.
        1    1    3    3  502    0  0.69112871463E+01 -0.79291265249E+03  0.37977173744E+02  0.79385169026E+03  0.50400001928E-02 0. -1.
       -1    1    3    3    0  502 -0.69112871463E+01  0.79291265249E+03  0.72113926856E+03  0.10718209202E+04  0.50400001928E-02 0.  1.
</event>
<event>
 5   0  0.6564887E-05  0.1707412E+04  0.7818609E-02  0.8757148E-01
        1   -1    0    0  501    0  0.00000000000E+00  0.00000000000E+00  0.10624213405E+04  0.10624213405E+04  0.50400001928E-02 0. -1.
       -1   -1    0    0    0  501  0.00000000000E+00  0.00000000000E+00 -0.68599346642E+03  0.68599346644E+03  0.50400001928E-02 0.  1.
    10030    2    1    2    0    0  0.00000000000E+00  0.00000000000E+00  0.37642787409E+03  0.17484148070E+04  0.17074121918E+04 0.  0.
        4    1    3    3  502    0 -0.26444338248E+03  0.80675504103E+03  0.96460373717E+02  0.85445316745E+03  0.12699999809E+01 0.  1.
       -4    1    3    3    0  502  0.26444338248E+03 -0.80675504103E+03  0.27996750038E+03  0.89396163952E+03  0.12699999809E+01 0. -1.
</event>
<event>
 5   0  0.1269175E-04  0.1699199E+04  0.7818609E-02  0.8761821E-01
       -2   -1    0    0    0  501  0.00000000000E+00  0.00000000000E+00  0.88555204083E+03  0.88555204084E+03  0.25500000920E-02 0.  1.
        2   -1    0    0  501    0  0.00000000000E+00  0.00000000000E+00 -0.81510670776E+03  0.81510670777E+03  0.25500000920E-02 0. -1.
    10030    2    1    2    0    0  0.00000000000E+00  0.00000000000E+00  0.70445333074E+02  0.17006587486E+04  0.16991991155E+04 0.  0.
        2    1    3    3  502    0 -0.23011241049E+03 -0.59408967073E+03  0.59777768658E+03  0.87363174216E+03  0.25500000920E-02 0.  1.
       -2    1    3    3    0  502  0.23011241049E+03  0.59408967073E+03 -0.52733235351E+03  0.82702700644E+03  0.25500000920E-02 0. -1.
</event>
<event>
 5   0  0.6834837E-05  0.1696907E+04  0.7818609E-02  0.8763130E-01
        1   -1    0    0  501    0  0.00000000000E+00  0.00000000000E+00  0.79335627728E+03  0.79335627730E+03  0.50400001928E-02 0. -1.
       -1   -1    0    0    0  501  0.00000000000E+00  0.00000000000E+00 -0.90737756217E+03  0.90737756218E+03  0.50400001928E-02 0.  1.
    10030    2    1    2    0    0  0.00000000000E+00  0.00000000000E+00 -0.11402128489E+03  0.17007338395E+04  0.16969074045E+04 0.  0.
        5    1    3    3  502    0 -0.81736110717E+03  0.21860693898E+03 -0.12026731493E+03  0.85460779912E+03  0.46999998093E+01 0. -1.
       -5    1    3    3    0  502  0.81736110717E+03 -0.21860693898E+03  0.62460300380E+01  0.84612604036E+03  0.46999998093E+01 0.  1.
</event>
<event>
 5   0  0.1269175E-04  0.1709047E+04  0.7818609E-02  0.8756221E-01
       -2   -1    0    0    0  501  0.00000000000E+00  0.00000000000E+00  0.63437765302E+03  0.63437765302E+03  0.25500000920E-02 0.  1.
        2   -1    0    0  501    0  0.00000000000E+00  0.00000000000E+00 -0.11510657761E+04  0.11510657761E+04  0.25500000920E-02 0. -1.
    10030    2    1    2    0    0  0.00000000000E+00  0.00000000000E+00 -0.51668812305E+03  0.17854434291E+04  0.17090469923E+04 0.  0.
        2    1    3    3  502    0  0.28103056574E+03  0.39354407185E+03  0.47767390783E+03  0.67972603128E+03  0.25500000920E-02 0.  1.
       -2    1    3    3    0  502 -0.28103056574E+03 -0.39354407185E+03 -0.99436203088E+03  0.11057173978E+04  0.25500000920E-02 0. -1.
</event>
<event>
 5   0  0.6564887E-05  0.1681363E+04  0.7818609E-02  0.8772066E-01
       -1   -1    0    0    0  501  0.00000000000E+00  0.00000000000E+00  0.57401363819E+03  0.57401363821E+03  0.50400001928E-02 0.  1.
        1   -1    0    0  501    0  0.00000000000E+00  0.00000000000E+00 -0.12312348385E+04  0.12312348385E+04  0.50400001928E-02 0. -1.
    10030    2    1    2    0    0  0.00000000000E+00  0.00000000000E+00 -0.65722120033E+03  0.18052484767E+04  0.16813632435E+04 0.  0.
        4    1    3    3  502    0 -0.51330653897E+03  0.43414336132E+03 -0.87055911751E+03  0.10999267481E+04  0.12699999809E+01 0. -1.
       -4    1    3    3    0  502  0.51330653897E+03 -0.43414336132E+03  0.21333791718E+03  0.70532172867E+03  0.12699999809E+01 0.  1.
</event>
<event>
 5   0  0.6564887E-05  0.1704635E+04  0.7818609E-02  0.8758726E-01
        1   -1    0    0  501    0  0.00000000000E+00  0.00000000000E+00  0.71767233718E+03  0.71767233719E+03  0.50400001928E-02 0. -1.
       -1   -1    0    0    0  501  0.00000000000E+00  0.00000000000E+00 -0.10122233529E+04  0.10122233530E+04  0.50400001928E-02 0.  1.
    10030    2    1    2    0    0  0.00000000000E+00  0.00000000000E+00 -0.29455101577E+03  0.17298956901E+04  0.17046345057E+04 0.  0.
        4    1    3    3  502    0 -0.54628268703E+02 -0.69586117241E+03 -0.64364144310E+03  0.94946455394E+03  0.12699999809E+01 0. -1.
       -4    1    3    3    0  502  0.54628268703E+02  0.69586117241E+03  0.34909042734E+03  0.78043113621E+03  0.12699999809E+01 0.  1.
</event>
<event>
 5   0  0.6539134E-05  0.1681535E+04  0.7818609E-02  0.8771966E-01
        1   -1    0    0  501    0  0.00000000000E+00  0.00000000000E+00  0.61966659673E+03  0.61966659675E+03  0.50400001928E-02 0.  1.
       -1   -1    0    0    0  501  0.00000000000E+00  0.00000000000E+00 -0.11407592525E+04  0.11407592525E+04  0.50400001928E-02 0. -1.
    10030    2    1    2    0    0  0.00000000000E+00  0.00000000000E+00 -0.52109265575E+03  0.17604258492E+04  0.16815354932E+04 0.  0.
        2    1    3    3  502    0 -0.16700877506E+03 -0.53805800844E+02 -0.11213780467E+04  0.11350223429E+04  0.25500000920E-02 0. -1.
       -2    1    3    3    0  502  0.16700877506E+03  0.53805800844E+02  0.60028539097E+03  0.62540350637E+03  0.25500000920E-02 0.  1.
</event>
<event>
 5   0  0.1269175E-04  0.1701991E+04  0.7818609E-02  0.8760229E-01
       -2   -1    0    0    0  501  0.00000000000E+00  0.00000000000E+00  0.15258817118E+04  0.15258817118E+04  0.25500000920E-02 0. -1.
        2   -1    0    0  501    0  0.00000000000E+00  0.00000000000E+00 -0.47460662844E+03  0.47460662845E+03  0.25500000920E-02 0.  1.
    10030    2    1    2    0    0  0.00000000000E+00  0.00000000000E+00  0.10512750833E+04  0.20004883402E+04  0.17019912745E+04 0.  0.
        2    1    3    3  502    0  0.61028674370E+03 -0.18237841283E+02  0.12224026582E+04  0.13664006686E+04  0.25500000920E-02 0. -1.
       -2    1    3    3    0  502 -0.61028674370E+03  0.18237841283E+02 -0.17112757488E+03  0.63408767160E+03  0.25500000920E-02 0.  1.
</event>
<event>
 5   0  0.4720875E-05  0.1690045E+04  0.7818609E-02  0.8767062E-01
       -3   -1    0    0    0  501  0.00000000000E+00  0.00000000000E+00  0.96759135435E+03  0.96759135962E+03  0.10100000352E+00 0.  1.
        3   -1    0    0  501    0  0.00000000000E+00  0.00000000000E+00 -0.73798018423E+03  0.73798019114E+03  0.10100000352E+00 0. -1.
    10030    2    1    2    0    0  0.00000000000E+00  0.00000000000E+00  0.22961117012E+03  0.17055715508E+04  0.16900452732E+04 0.  0.
        4    1    3    3  502    0 -0.44126743144E+03  0.64172177308E+03 -0.21613673425E+03  0.80823293727E+03  0.12699999809E+01 0. -1.
       -4    1    3    3    0  502  0.44126743144E+03 -0.64172177308E+03  0.44574790437E+03  0.89733861348E+03  0.12699999809E+01 0.  1.
</event>
<event>
 5   0  0.1333546E-04  0.1702047E+04  0.7818609E-02  0.8760198E-01
       -2   -1    0    0    0  501  0.00000000000E+00  0.00000000000E+00  0.83781768262E+03  0.83781768263E+03  0.25500000920E-02 0.  1.
        2   -1    0    0  501    0  0.00000000000E+00  0.00000000000E+00 -0.86443775595E+03  0.86443775596E+03  0.25500000920E-02 0. -1.
    10030    2    1    2    0    0  0.00000000000E+00  0.00000000000E+00 -0.26620073331E+02  0.17022554386E+04  0.17020472819E+04 0.  0.
        5    1    3    3  502    0 -0.31927891950E+03  0.46939251383E+03  0.62076338843E+03  0.84121200354E+03  0.46999998093E+01 0.  1.
       -5    1    3    3    0  502  0.31927891950E+03 -0.46939251383E+03 -0.64738346176E+03  0.86104343505E+03  0.46999998093E+01 0. -1.
</event>
<event>
 5   0  0.1333546E-04  0.1700214E+04  0.7818609E-02  0.8761242E-01
       -2   -1    0    0    0  501  0.00000000000E+00  0.00000000000E+00  0.41931657352E+03  0.41931657353E+03  0.25500000920E-02 0. -1.
        2   -1    0    0  501    0  0.00000000000E+00  0.00000000000E+00 -0.17234763420E+04  0.17234763420E+04  0.25500000920E-02 0.  1.
    10030    2    1    2    0    0  0.00000000000E+00  0.00000000000E+00 -0.13041597685E+04  0.21427929155E+04  0.17002143327E+04 0.  0.
        5    1    3    3  502    0 -0.33584866818E+03  0.41848117661E+03 -0.14830606478E+04  0.15771530675E+04  0.46999998093E+01 0.  1.
       -5    1    3    3    0  502  0.33584866818E+03 -0.41848117661E+03  0.17890087935E+03  0.56563984807E+03  0.46999998093E+01 0. -1.
</event>
<event>
 5   0  0.1285639E-04  0.1692441E+04  0.7818609E-02  0.8765687E-01
       -2   -1    0    0    0  501  0.00000000000E+00  0.00000000000E+00  0.13375639099E+04  0.13375639099E+04  0.25500000920E-02 0.  1.
        2   -1    0    0  501    0  0.00000000000E+00  0.00000000000E+00 -0.53536834590E+03  0.53536834591E+03  0.25500000920E-02 0. -1.
    10030    2    1    2    0    0  0.00000000000E+00  0.00000000000E+00  0.80219556395E+03  0.18729322558E+04  0.16924412876E+04 0.  0.
        4    1    3    3  502    0  0.24971116976E+03 -0.64346534413E+03 -0.14068897486E+03  0.70441345667E+03  0.12699999809E+01 0. -1.
       -4    1    3    3    0  502 -0.24971116976E+03  0.64346534413E+03  0.94288453881E+03  0.11685187991E+04  0.12699999809E+01 0.  1.
</event>
<event>
 5   0  0.6564887E-05  0.1702883E+04  0.7818609E-02  0.8759722E-01
       -1   -1    0    0    0  501  0.00000000000E+00  0.00000000000E+00  0.42724371344E+03  0.42724371347E+03  0.50400001928E-02 0.  1.
        1   -1    0    0  501    0  0.00000000000E+00  0.00000000000E+00 -0.16968125867E+04  0.16968125867E+04  0.50400001928E-02 0. -1.
    10030    2    1    2    0    0  0.00000000000E+00  0.00000000000E+00 -0.12695688733E+04  0.21240563002E+04  0.17028828622E+04 0.  0.
        4    1    3    3  502    0 -0.77735506737E+03 -0.28942181739E+03 -0.87440490031E+03  0.12052516052E+04  0.12699999809E+01 0. -1.
       -4    1    3    3    0  502  0.77735506737E+03  0.28942181739E+03 -0.39516397294E+03  0.91880469501E+03  0.12699999809E+01 0.  1.
</event>
<event>
 5   0  0.6539134E-05  0.1693464E+04  0.7818609E-02  0.8765101E-01
       -1   -1    0    0    0  501  0.00000000000E+00  0.00000000000E+00  0.11560151187E+04  0.11560151187E+04  0.50400001928E-02 0.  1.
        1   -1    0    0  501    0  0.00000000000E+00  0.00000000000E+00 -0.62019554592E+03  0.62019554594E+03  0.50400001928E-02 0. -1.
    10030    2    1    2    0    0  0.00000000000E+00  0.00000000000E+00  0.53581957275E+03  0.17762106646E+04  0.16934644108E+04 0.  0.
        2    1    3    3  502    0  0.65717291691E+03 -0.52963938923E+03  0.19707235140E+03  0.86673619806E+03  0.25500000920E-02 0. -1.
       -2    1    3    3    0  502 -0.65717291691E+03  0.52963938923E+03  0.33874722135E+03  0.90947446655E+03  0.25500000920E-02 0.  1.
</event>
<event>
 5   0  0.1269175E-04  0.1688424E+04  0.7818609E-02  0.8767995E-01
       -2   -1    0    0    0  501  0.00000000000E+00  0.00000000000E+00  0.12412971262E+04  0.12412971262E+04  0.25500000920E-02 0. -1.
        2   -1    0    0  501    0  0.00000000000E+00  0.00000000000E+00 -0.57415222086E+03  0.57415222087E+03  0.25500000920E-02 0.  1.
    10030    2    1    2    0    0  0.00000000000E+00  0.00000000000E+00  0.66714490534E+03  0.18154493471E+04  0.16884235272E+04 0.  0.
        2    1    3    3  502    0 -0.75267602144E+02 -0.42065383429E+02  0.12365500919E+04  0.12395526767E+04  0.25500000920E-02 0. -1.
       -2    1    3    3    0  502  0.75267602144E+02  0.42065383429E+02 -0.56940518660E+03  0.57589667038E+03  0.25500000920E-02 0.  1.
</event>
<event>
 5   0  0.6539134E-05  0.1697411E+04  0.7818609E-02  0.8762842E-01
        1   -1    0    0  501    0  0.00000000000E+00  0.00000000000E+00  0.75588323892E+03  0.75588323894E+03  0.50400001928E-02 0.  1.
       -1   -1    0    0    0  501  0.00000000000E+00  0.00000000000E+00 -0.95292618883E+03  0.95292618884E+03  0.50400001928E-02 0. -1.
    10030    2    1    2    0    0  0.00000000000E+00  0.00000000000E+00 -0.19704294990E+03  0.17088094278E+04  0.16974108920E+04 0.  0.
        2    1    3    3  502    0  0.54745231850E+03  0.57317422514E+02 -0.74885610173E+03  0.92939485100E+03  0.25500000920E-02 0. -1.
       -2    1    3    3    0  502 -0.54745231850E+03 -0.57317422514E+02  0.55181315183E+03  0.77941457678E+03  0.25500000920E-02 0.  1.
</event>
<event>
 5   0  0.1393870E-04  0.1708373E+04  0.7818609E-02  0.8756603E-01
       -2   -1    0    0    0  501  0.00000000000E+00  0.00000000000E+00  0.90183637210E+03  0.90183637211E+03  0.25500000920E-02 0. -1.
        2   -1    0    0  501    0  0.00000000000E+00  0.00000000000E+00 -0.80905403510E+03  0.80905403510E+03  0.25500000920E-02 0.  1.
    10030    2    1    2    0    0  0.00000000000E+00  0.00000000000E+00  0.92782337004E+02  0.17108904072E+04  0.17083727414E+04 0.  0.
        3    1    3    3  502    0  0.43732248172E+03  0.69704180294E+03 -0.18311050888E+03  0.84299922700E+03  0.10100000352E+00 0.  1.
       -3    1    3    3    0  502 -0.43732248172E+03 -0.69704180294E+03  0.27589284588E+03  0.86789118020E+03  0.10100000352E+00 0. -1.
</event>
<event>
 5   0  0.1333546E-04  0.1651336E+04  0.7818609E-02  0.8789617E-01
        2   -1    0    0  501    0  0.00000000000E+00  0.00000000000E+00  0.25786026708E+04  0.25786026708E+04  0.25500000920E-02 0.  1.
       -2   -1    0    0    0  501  0.00000000000E+00  0.00000000000E+00 -0.26437860763E+03  0.26437860764E+03  0.25500000920E-02 0. -1.
    10030    2    1    2    0    0  0.00000000000E+00  0.00000000000E+00  0.23142240631E+04  0.28429812784E+04  0.16513356821E+04 0.  0.
        5    1    3    3  502    0  0.23673478518E+03 -0.48025376250E+03  0.22391617584E+04  0.23022933143E+04  0.46999998093E+01 0.  1.
       -5    1    3    3    0  502 -0.23673478518E+03  0.48025376250E+03  0.75062304732E+02  0.54068796408E+03  0.46999998093E+01 0. -1.
</event>
<event>
 5   0  0.6834837E-05  0.1699796E+04  0.7818609E-02  0.8761481E-01
       -1   -1    0    0    0  501  0.00000000000E+00  0.00000000000E+00  0.92388729068E+03  0.92388729070E+03  0.50400001928E-02 0. -1.
        1   -1    0    0  501    0  0.00000000000E+00  0.00000000000E+00 -0.78183395737E+03  0.78183395739E+03  0.50400001928E-02 0.  1.
    10030    2    1    2    0    0  0.00000000000E+00  0.00000000000E+00  0.14205333331E+03  0.17057212481E+04  0.16997958191E+04 0.  0.
        5    1    3    3  502    0 -0.45762166295E+02  0.54354386995E+03  0.72504263177E+03  0.90732740634E+03  0.46999998093E+01 0. -1.
       -5    1    3    3    0  502  0.45762166295E+02 -0.54354386995E+03 -0.58298929845E+03  0.79839384174E+03  0.46999998093E+01 0.  1.
</event>
<event>
 5   0  0.6615842E-05  0.1697071E+04  0.7818609E-02  0.8763037E-01
       -1   -1    0    0    0  501  0.00000000000E+00  0.00000000000E+00  0.40569616978E+03  0.40569616981E+03  0.50400001928E-02 0.  1.
        1   -1    0    0  501    0  0.00000000000E+00  0.00000000000E+00 -0.17747582030E+04  0.17747582030E+04  0.50400001928E-02 0. -1.
    10030    2    1    2    0    0  0.00000000000E+00  0.00000000000E+00 -0.13690620332E+04  0.21804543728E+04  0.16970711302E+04 0.  0.
        3    1    3    3  502    0  0.10877092775E+03  0.83413929389E+03 -0.54149768217E+03  0.10004195252E+04  0.10100000352E+00 0.  1.
       -3    1    3    3    0  502 -0.10877092775E+03 -0.83413929389E+03 -0.82756435103E+03  0.11800348476E+04  0.10100000352E+00 0. -1.
</event>
<event>
 5   0  0.1393870E-04  0.1703399E+04  0.7818609E-02  0.8759428E-01
        2   -1    0    0  501    0  0.00000000000E+00  0.00000000000E+00  0.19540825406E+04  0.19540825406E+04  0.25500000920E-02 0.  1.
       -2   -1    0    0    0  501  0.00000000000E+00  0.00000000000E+00 -0.37121880275E+03  0.37121880276E+03  0.25500000920E-02 0. -1.
    10030    2    1    2    0    0  0.00000000000E+00  0.00000000000E+00  0.15828637379E+04  0.23253013434E+04  0.17033991678E+04 0.  0.
        3    1    3    3  502    0  0.27119671864E+03 -0.76632755132E+02 -0.30572729694E+03  0.41579974706E+03  0.10100000352E+00 0. -1.
       -3    1    3    3    0  502 -0.27119671864E+03  0.76632755132E+02  0.18885910348E+04  0.19095015963E+04  0.10100000352E+00 0.  1.
</event>
<event>
 5   0  0.1255362E-04  0.1712590E+04  0.7818609E-02  0.8754216E-01
       -2   -1    0    0    0  501  0.00000000000E+00  0.00000000000E+00  0.41883229190E+03  0.41883229191E+03  0.25500000920E-02 0. -1.
        2   -1    0    0  501    0  0.00000000000E+00  0.00000000000E+00 -0.17506790694E+04  0.17506790694E+04  0.25500000920E-02 0.  1.
    10030    2    1    2    0    0  0.00000000000E+00  0.00000000000E+00 -0.13318467775E+04  0.21695113613E+04  0.17125897664E+04 0.  0.
        1    1    3    3  502    0  0.83968383944E+03 -0.16392367101E+03 -0.71161625223E+03  0.11128061873E+04  0.50400001928E-02 0.  1.
       -1    1    3    3    0  502 -0.83968383944E+03  0.16392367101E+03 -0.62023052524E+03  0.10567051739E+04  0.50400001928E-02 0. -1.
</event>
<event>
 5   0  0.1255362E-04  0.1698400E+04  0.7818609E-02  0.8762277E-01
       -2   -1    0    0    0  501  0.00000000000E+00  0.00000000000E+00  0.13331010287E+04  0.13331010287E+04  0.25500000920E-02 0. -1.
        2   -1    0    0  501    0  0.00000000000E+00  0.00000000000E+00 -0.54094973284E+03  0.54094973285E+03  0.25500000920E-02 0.  1.
    10030    2    1    2    0    0  0.00000000000E+00  0.00000000000E+00  0.79215129584E+03  0.18740507615E+04  0.16984000063E+04 0.  0.
        1    1    3    3  502    0 -0.41764515311E+03 -0.47097234244E+03 -0.23287278037E+03  0.67117222315E+03  0.50400001928E-02 0.  1.
       -1    1    3    3    0  502  0.41764515311E+03  0.47097234244E+03  0.10250240762E+04  0.12028785384E+04  0.50400001928E-02 0. -1.
</event>
<event>
 5   0  0.1269175E-04  0.1700405E+04  0.7818609E-02  0.8761133E-01
       -2   -1    0    0    0  501  0.00000000000E+00  0.00000000000E+00  0.56278023090E+03  0.56278023090E+03  0.25500000920E-02 0.  1.
        2   -1    0    0  501    0  0.00000000000E+00  0.00000000000E+00 -0.12844170099E+04  0.12844170099E+04  0.25500000920E-02 0. -1.
    10030    2    1    2    0    0  0.00000000000E+00  0.00000000000E+00 -0.72163677903E+03  0.18471972408E+04  0.17004052475E+04 0.  0.
        2    1    3    3  502    0 -0.56610119663E+02  0.75083464276E+03  0.68091413408E+02  0.75603823117E+03  0.25500000920E-02 0.  1.
       -2    1    3    3    0  502  0.56610119663E+02 -0.75083464276E+03 -0.78972819244E+03  0.10911590097E+04  0.25500000920E-02 0. -1.
</event>
<event>
 5   0  0.6601906E-05  0.1703604E+04  0.7818609E-02  0.8759311E-01
        1   -1    0    0  501    0  0.00000000000E+00  0.00000000000E+00  0.66519490216E+03  0.66519490218E+03  0.50400001928E-02 0.  1.
       -1   -1    0    0    0  501  0.00000000000E+00  0.00000000000E+00 -0.10907582818E+04  0.10907582818E+04  0.50400001928E-02 0. -1.
    10030    2    1    2    0    0  0.00000000000E+00  0.00000000000E+00 -0.42556337962E+03  0.17559531840E+04  0.17036042364E+04 0.  0.
        1    1    3    3  502    0 -0.37345838969E+03 -0.62647189506E+03 -0.66633571333E+03  0.98789750836E+03  0.50400001928E-02 0. -1.
       -1    1    3    3    0  502  0.37345838969E+03  0.62647189506E+03  0.24077233371E+03  0.76805567561E+03  0.50400001928E-02 0.  1.
</event>
<event>
 5   0  0.1255362E-04  0.1722023E+04  0.7818609E-02  0.8748903E-01
        2   -1    0    0  501    0  0.00000000000E+00  0.00000000000E+00  0.86012385765E+03  0.86012385766E+03  0.25500000920E-02 0. -1.
       -2   -1    0    0    0  501  0.00000000000E+00  0.00000000000E+00 -0.86189972191E+03  0.86189972192E+03  0.25500000920E-02 0.  1.
    10030    2    1    2    0    0  0.00000000000E+00  0.00000000000E+00 -0.17758642602E+01  0.17220235796E+04  0.17220226639E+04 0.  0.
        1    1    3    3  502    0 -0.77117903143E+03 -0.37897436712E+03  0.53901185867E+02  0.86095528764E+03  0.50400001928E-02 0.  1.
       -1    1    3    3    0  502  0.77117903143E+03  0.37897436712E+03 -0.55677050127E+02  0.86106829194E+03  0.50400001928E-02 0. -1.
</event>
<event>
 5   0  0.1285639E-04  0.1699152E+04  0.7818609E-02  0.8761848E-01
       -2   -1    0    0    0  501  0.00000000000E+00  0.00000000000E+00  0.10446690141E+04  0.10446690141E+04  0.25500000920E-02 0. -1.
        2   -1    0    0  501    0  0.00000000000E+00  0.00000000000E+00 -0.69091649742E+03  0.69091649743E+03  0.25500000920E-02 0.  1.
    10030    2    1    2    0    0  0.00000000000E+00  0.00000000000E+00  0.35375251665E+03  0.17355855115E+04  0.16991516191E+04 0.  0.
        4    1    3    3  502    0  0.39492414787E+03 -0.22187017891E+03 -0.55727439887E+03  0.71815585174E+03  0.12699999809E+01 0.  1.
       -4    1    3    3    0  502 -0.39492414787E+03  0.22187017891E+03  0.91102691552E+03  0.10174296598E+04  0.12699999809E+01 0. -1.
</event>
<event>
 5   0  0.1393870E-04  0.1678344E+04  0.7818609E-02  0.8773813E-01
       -2   -1    0    0    0  501  0.00000000000E+00  0.00000000000E+00  0.33422469145E+03  0.33422469146E+03  0.25500000920E-02 0.  1.
        2   -1    0    0  501    0  0.00000000000E+00  0.00000000000E+00 -0.21069956431E+04  0.21069956431E+04  0.25500000920E-02 0. -1.
    10030    2    1    2    0    0  0.00000000000E+00  0.00000000000E+00 -0.17727709516E+04  0.24412203345E+04  0.16783443850E+04 0.  0.
        3    1    3    3  502    0  0.76660551820E+02  0.82036932147E+03 -0.11178691146E+04  0.13887094842E+04  0.10100000352E+00 0.  1.
       -3    1    3    3    0  502 -0.76660551820E+02 -0.82036932147E+03 -0.65490183702E+03  0.10525108504E+04  0.10100000352E+00 0. -1.
</event>
<event>
 5   0  0.6834837E-05  0.1601944E+04  0.7818609E-02  0.8819355E-01
        1   -1    0    0  501    0  0.00000000000E+00  0.00000000000E+00  0.15673323332E+04  0.15673323332E+04  0.50400001928E-02 0. -1.
       -1   -1    0    0    0  501  0.00000000000E+00  0.00000000000E+00 -0.40932998553E+03  0.40932998556E+03  0.50400001928E-02 0.  1.
    10030    2    1    2    0    0  0.00000000000E+00  0.00000000000E+00  0.11580023477E+04  0.19766623188E+04  0.16019439707E+04 0.  0.
        5    1    3    3  502    0 -0.51141176453E+03 -0.42181737560E+03  0.24340167434E+02  0.66339010017E+03  0.46999998093E+01 0.  1.
       -5    1    3    3    0  502  0.51141176453E+03  0.42181737560E+03  0.11336621803E+04  0.13132722186E+04  0.46999998093E+01 0. -1.
</event>
<event>
 5   0  0.6539134E-05  0.1696686E+04  0.7818609E-02  0.8763256E-01
       -1   -1    0    0    0  501  0.00000000000E+00  0.00000000000E+00  0.71583744834E+03  0.71583744836E+03  0.50400001928E-02 0.  1.
        1   -1    0    0  501    0  0.00000000000E+00  0.00000000000E+00 -0.10053765953E+04  0.10053765953E+04  0.50400001928E-02 0. -1.
    10030    2    1    2    0    0  0.00000000000E+00  0.00000000000E+00 -0.28953914697E+03  0.17212140437E+04  0.16966864373E+04 0.  0.
        2    1    3    3  502    0  0.59067684019E+02 -0.55518169698E+03  0.50318965202E+03  0.75160863078E+03  0.25500000920E-02 0.  1.
       -2    1    3    3    0  502 -0.59067684019E+02  0.55518169698E+03 -0.79272879900E+03  0.96960541290E+03  0.25500000920E-02 0. -1.
</event>
<event>
 5   0  0.1255362E-04  0.1695123E+04  0.7818609E-02  0.8764150E-01
       -2   -1    0    0    0  501  0.00000000000E+00  0.00000000000E+00  0.97945961347E+03  0.97945961348E+03  0.25500000920E-02 0.  1.
        2   -1    0    0  501    0  0.00000000000E+00  0.00000000000E+00 -0.73342576294E+03  0.73342576294E+03  0.25500000920E-02 0. -1.
    10030    2    1    2    0    0  0.00000000000E+00  0.00000000000E+00  0.24603385054E+03  0.17128853764E+04  0.16951234932E+04 0.  0.
        1    1    3    3  502    0 -0.19075656371E+03 -0.44491831487E+03 -0.57998878876E+03  0.75546500158E+03  0.50400001928E-02 0. -1.
       -1    1    3    3    0  502  0.19075656371E+03  0.44491831487E+03  0.82602263930E+03  0.95742037484E+03  0.50400001928E-02 0.  1.
</event>
<event>
 5   0  0.1285639E-04  0.1702741E+04  0.7818609E-02  0.8759802E-01
        2   -1    0    0  501    0  0.00000000000E+00  0.00000000000E+00  0.85353734801E+03  0.85353734801E+03  0.25500000920E-02 0.  1.
       -2   -1    0    0    0  501  0.00000000000E+00  0.00000000000E+00 -0.84920946094E+03  0.84920946094E+03  0.25500000920E-02 0. -1.
    10030    2    1    2    0    0  0.00000000000E+00  0.00000000000E+00  0.43278870699E+01  0.17027468090E+04  0.17027413088E+04 0.  0.
        4    1    3    3  502    0 -0.54277623742E+03  0.45160356568E+03 -0.47352504697E+03  0.85016434144E+03  0.12699999809E+01 0.  1.
       -4    1    3    3    0  502  0.54277623742E+03 -0.45160356568E+03  0.47785293404E+03  0.85258246752E+03  0.12699999809E+01 0. -1.
</event>
<event>
 5   0  0.1393870E-04  0.1698186E+04  0.7818609E-02  0.8762400E-01
       -2   -1    0    0    0  501  0.00000000000E+00  0.00000000000E+00  0.79771345590E+03  0.79771345590E+03  0.25500000920E-02 0. -1.
        2   -1    0    0  501    0  0.00000000000E+00  0.00000000000E+00 -0.90378148915E+03  0.90378148916E+03  0.25500000920E-02 0.  1.
    10030    2    1    2    0    0  0.00000000000E+00  0.00000000000E+00 -0.10606803326E+03  0.17014949451E+04  0.16981856849E+04 0.  0.
        3    1    3    3  502    0  0.40430517799E+03 -0.66564109524E+03  0.28588229731E+03  0.82962005927E+03  0.10100000352E+00 0. -1.
       -3    1    3    3    0  502 -0.40430517799E+03  0.66564109524E+03 -0.39195033057E+03  0.87187488579E+03  0.10100000352E+00 0.  1.
</event>
<event>
 5   0  0.6601906E-05  0.1784844E+04  0.7818609E-02  0.8714401E-01
       -1   -1    0    0    0  501  0.00000000000E+00  0.00000000000E+00  0.73822449163E+03  0.73822449165E+03  0.50400001928E-02 0. -1.
        1   -1    0    0  501    0  0.00000000000E+00  0.00000000000E+00 -0.10788272258E+04  0.10788272258E+04  0.50400001928E-02 0.  1.
    10030    2    1    2    0    0  0.00000000000E+00  0.00000000000E+00 -0.34060273417E+03  0.18170517175E+04  0.17848436126E+04 0.  0.
        1    1    3    3  502    0  0.86215801758E+03  0.20681840594E+03 -0.27375391015E+03  0.92791783239E+03  0.50400001928E-02 0.  1.
       -1    1    3    3    0  502 -0.86215801758E+03 -0.20681840594E+03 -0.66848824020E+02  0.88913388509E+03  0.50400001928E-02 0. -1.
</event>
<event>
 5   0  0.1269175E-04  0.1735679E+04  0.7818609E-02  0.8741273E-01
        2   -1    0    0  501    0  0.00000000000E+00  0.00000000000E+00  0.75438461779E+03  0.75438461779E+03  0.25500000920E-02 0. -1.
       -2   -1    0    0    0  501  0.00000000000E+00  0.00000000000E+00 -0.99835710468E+03  0.99835710468E+03  0.25500000920E-02 0.  1.
    10030    2    1    2    0    0  0.00000000000E+00  0.00000000000E+00 -0.24397248689E+03  0.17527417225E+04  0.17356788215E+04 0.  0.
        2    1    3    3  502    0  0.71962345581E+02 -0.13539625112E+03  0.74059745541E+03  0.75630371873E+03  0.25500000920E-02 0. -1.
       -2    1    3    3    0  502 -0.71962345581E+02  0.13539625112E+03 -0.98456994230E+03  0.99643800374E+03  0.25500000920E-02 0.  1.
</event>
<event>
 5   0  0.6601906E-05  0.1692220E+04  0.7818609E-02  0.8765814E-01
        1   -1    0    0  501    0  0.00000000000E+00  0.00000000000E+00  0.80939962377E+03  0.80939962378E+03  0.50400001928E-02 0.  1.
       -1   -1    0    0    0  501  0.00000000000E+00  0.00000000000E+00 -0.88448577244E+03  0.88448577246E+03  0.50400001928E-02 0. -1.
    10030    2    1    2    0    0  0.00000000000E+00  0.00000000000E+00 -0.75086148677E+02  0.16938853962E+04  0.16922203775E+04 0.  0.
        1    1    3    3  502    0 -0.83569573460E+02  0.84188998111E+03 -0.49380001676E+02  0.84746740262E+03  0.50400001928E-02 0.  1.
       -1    1    3    3    0  502  0.83569573460E+02 -0.84188998111E+03 -0.25706147001E+02  0.84641799362E+03  0.50400001928E-02 0. -1.
</event>
<event>
 5   0  0.6539134E-05  0.1727507E+04  0.7818609E-02  0.8745830E-01
        1   -1    0    0  501    0  0.00000000000E+00  0.00000000000E+00  0.12294056111E+04  0.12294056111E+04  0.50400001928E-02 0.  1.
       -1   -1    0    0    0  501  0.00000000000E+00  0.00000000000E+00 -0.60685443804E+03  0.60685443806E+03  0.50400001928E-02 0. -1.
    10030    2    1    2    0    0  0.00000000000E+00  0.00000000000E+00  0.62255117303E+03  0.18362600491E+04  0.17275071650E+04 0.  0.
        2    1    3    3  502    0  0.29981651245E+03  0.77589414566E+03  0.55866896592E+03  0.10020043313E+04  0.25500000920E-02 0.  1.
       -2    1    3    3    0  502 -0.29981651245E+03 -0.77589414566E+03  0.63882207115E+02  0.83425571787E+03  0.25500000920E-02 0. -1.
</event>
<event>
 5   0  0.1333546E-04  0.1697641E+04  0.7818609E-02  0.8762711E-01
        2   -1    0    0  501    0  0.00000000000E+00  0.00000000000E+00  0.13511054172E+04  0.13511054172E+04  0.25500000920E-02 0.  1.
       -2   -1    0    0    0  501  0.00000000000E+00  0.00000000000E+00 -0.53326415164E+03  0.53326415165E+03  0.25500000920E-02 0. -1.
    10030    2    1    2    0    0  0.00000000000E+00  0.00000000000E+00  0.81784126557E+03  0.18843695689E+04  0.16976408149E+04 0.  0.
        5    1    3    3  502    0 -0.81822151226E+03 -0.21960294666E+03  0.46725704580E+03  0.96750355769E+03  0.46999998093E+01 0.  1.
       -5    1    3    3    0  502  0.81822151226E+03  0.21960294666E+03  0.35058421977E+03  0.91686601118E+03  0.46999998093E+01 0. -1.
</event>
<event>
 5   0  0.6601906E-05  0.1704689E+04  0.7818609E-02  0.8758695E-01
       -1   -1    0    0    0  501  0.00000000000E+00  0.00000000000E+00  0.82412982773E+03  0.82412982774E+03  0.50400001928E-02 0. -1.
        1   -1    0    0  501    0  0.00000000000E+00  0.00000000000E+00 -0.88152466723E+03  0.88152466724E+03  0.50400001928E-02 0.  1.
    10030    2    1    2    0    0  0.00000000000E+00  0.00000000000E+00 -0.57394839499E+02  0.17056544950E+04  0.17046885606E+04 0.  0.
        1    1    3    3  502    0  0.87607866872E+01  0.14275732190E+03 -0.86943205122E+03  0.88111775379E+03  0.50400001928E-02 0.  1.
       -1    1    3    3    0  502 -0.87607866872E+01 -0.14275732190E+03  0.81203721172E+03  0.82453674119E+03  0.50400001928E-02 0. -1.
</event>
<event>
 5   0  0.1285639E-04  0.1711247E+04  0.7818609E-02  0.8754975E-01
        2   -1    0    0  501    0  0.00000000000E+00  0.00000000000E+00  0.90314640209E+03  0.90314640210E+03  0.25500000920E-02 0. -1.
       -2   -1    0    0    0  501  0.00000000000E+00  0.00000000000E+00 -0.81060160755E+03  0.81060160755E+03  0.25500000920E-02 0.  1.
    10030    2    1    2    0    0  0.00000000000E+00  0.00000000000E+00  0.92544794547E+02  0.17137480096E+04  0.17112474110E+04 0.  0.
        4    1    3    3  502    0  0.22474848665E+03  0.55589186381E+03  0.65754344406E+03  0.88988349812E+03  0.12699999809E+01 0. -1.
       -4    1    3    3    0  502 -0.22474848665E+03 -0.55589186381E+03 -0.56499864951E+03  0.82386451153E+03  0.12699999809E+01 0.  1.
</event>
<event>
 5   0  0.4720875E-05  0.1689584E+04  0.7818609E-02  0.8767327E-01
        3   -1    0    0  501    0  0.00000000000E+00  0.00000000000E+00  0.90664983724E+03  0.90664984286E+03  0.10100000352E+00 0.  1.
       -3   -1    0    0    0  501  0.00000000000E+00  0.00000000000E+00 -0.78715462611E+03  0.78715463259E+03  0.10100000352E+00 0. -1.
    10030    2    1    2    0    0  0.00000000000E+00  0.00000000000E+00  0.11949521113E+03  0.16938044754E+04  0.16895841191E+04 0.  0.
        1    1    3    3  502    0 -0.19567284729E+02  0.20582161393E+03 -0.76140047695E+03  0.78897154684E+03  0.50400001928E-02 0. -1.
       -1    1    3    3    0  502  0.19567284729E+02 -0.20582161393E+03  0.88089568808E+03  0.90483292861E+03  0.50400001928E-02 0.  1.
</event>
<event>
 5   0  0.1393870E-04  0.1699526E+04  0.7818609E-02  0.8761635E-01
       -2   -1    0    0    0  501  0.00000000000E+00  0.00000000000E+00  0.49800748690E+03  0.49800748690E+03  0.25500000920E-02 0. -1.
        2   -1    0    0  501    0  0.00000000000E+00  0.00000000000E+00 -0.14499722132E+04  0.14499722132E+04  0.25500000920E-02 0.  1.
    10030    2    1    2    0    0  0.00000000000E+00  0.00000000000E+00 -0.95196472633E+03  0.19479797001E+04  0.16995258374E+04 0.  0.
        3    1    3    3  502    0 -0.11589283603E+03 -0.82650036125E+03 -0.65924024415E+03  0.10635467579E+04  0.10100000352E+00 0.  1.
       -3    1    3    3    0  502  0.11589283603E+03  0.82650036125E+03 -0.29272448217E+03  0.88443294220E+03  0.10100000352E+00 0. -1.
</event>
<event>
 5   0  0.1393870E-04  0.1700718E+04  0.7818609E-02  0.8760955E-01
        2   -1    0    0  501    0  0.00000000000E+00  0.00000000000E+00  0.76922881219E+03  0.76922881219E+03  0.25500000920E-02 0.  1.
       -2   -1    0    0    0  501  0.00000000000E+00  0.00000000000E+00 -0.94004635944E+03  0.94004635944E+03  0.25500000920E-02 0. -1.
    10030    2    1    2    0    0  0.00000000000E+00  0.00000000000E+00 -0.17081754725E+03  0.17092751716E+04  0.17007183711E+04 0.  0.
        3    1    3    3  502    0 -0.24945375154E+03 -0.37018704094E+03  0.64200417961E+03  0.78194309018E+03  0.10100000352E+00 0.  1.
       -3    1    3    3    0  502  0.24945375154E+03  0.37018704094E+03 -0.81282172686E+03  0.92733208146E+03  0.10100000352E+00 0. -1.
</event>
<event>
 5   0  0.6615842E-05  0.1716414E+04  0.7818609E-02  0.8752058E-01
       -1   -1    0    0    0  501  0.00000000000E+00  0.00000000000E+00  0.10193582349E+04  0.10193582350E+04  0.50400001928E-02 0.  1.
        1   -1    0    0  501    0  0.00000000000E+00  0.00000000000E+00 -0.72253246513E+03  0.72253246515E+03  0.50400001928E-02 0. -1.
    10030    2    1    2    0    0  0.00000000000E+00  0.00000000000E+00  0.29682576982E+03  0.17418907001E+04  0.17164141905E+04 0.  0.
        3    1    3    3  502    0  0.79943660390E+01  0.16210074000E+03  0.10036423807E+04  0.10166801849E+04  0.10100000352E+00 0.  1.
       -3    1    3    3    0  502 -0.79943660390E+01 -0.16210074000E+03 -0.70681661088E+03  0.72521051523E+03  0.10100000352E+00 0. -1.
</event>
<event>
 5   0  0.1269175E-04  0.1651722E+04  0.7818609E-02  0.8789388E-01
        2   -1    0    0  501    0  0.00000000000E+00  0.00000000000E+00  0.89697507913E+03  0.89697507913E+03  0.25500000920E-02 0. -1.
       -2   -1    0    0    0  501  0.00000000000E+00  0.00000000000E+00 -0.76038544119E+03  0.76038544120E+03  0.25500000920E-02 0.  1.
    10030    2    1    2    0    0  0.00000000000E+00  0.00000000000E+00  0.13658963793E+03  0.16573605203E+04  0.16517224843E+04 0.  0.
        2    1    3    3  502    0 -0.34445285844E+03 -0.25088947826E+03 -0.64154730741E+03  0.77017936199E+03  0.25500000920E-02 0.  1.
       -2    1    3    3    0  502  0.34445285844E+03  0.25088947826E+03  0.77813694534E+03  0.88718115834E+03  0.25500000920E-02 0. -1.
</event>
<event>
 5   0  0.1285639E-04  0.1689671E+04  0.7818609E-02  0.8767277E-01
        2   -1    0    0  501    0  0.00000000000E+00  0.00000000000E+00  0.11977700417E+04  0.11977700417E+04  0.25500000920E-02 0.  1.
       -2   -1    0    0    0  501  0.00000000000E+00  0.00000000000E+00 -0.59589678615E+03  0.59589678616E+03  0.25500000920E-02 0. -1.
    10030    2    1    2    0    0  0.00000000000E+00  0.00000000000E+00  0.60187325558E+03  0.17936668279E+04  0.16896713508E+04 0.  0.
        4    1    3    3  502    0 -0.71885239636E+03 -0.16005041025E+03 -0.13852465977E+03  0.74937013273E+03  0.12699999809E+01 0. -1.
       -4    1    3    3    0  502  0.71885239636E+03  0.16005041025E+03  0.74039791535E+03  0.10442966952E+04  0.12699999809E+01 0.  1.
</event>
<event>
 5   0  0.1285639E-04  0.1696694E+04  0.7818609E-02  0.8763252E-01
       -2   -1    0    0    0  501  0.00000000000E+00  0.00000000000E+00  0.48105353838E+03  0.48105353839E+03  0.25500000920E-02 0. -1.
        2   -1    0    0  501    0  0.00000000000E+00  0.00000000000E+00 -0.14960751278E+04  0.14960751278E+04  0.25500000920E-02 0.  1.
    10030    2    1    2    0    0  0.00000000000E+00  0.00000000000E+00 -0.10150215894E+04  0.19771286662E+04  0.16966935303E+04 0.  0.
        4    1    3    3  502    0 -0.48920195406E+03 -0.60320298798E+03 -0.90527752752E+03  0.11927704772E+04  0.12699999809E+01 0.  1.
       -4    1    3    3    0  502  0.48920195406E+03  0.60320298798E+03 -0.10974406186E+03  0.78435818895E+03  0.12699999809E+01 0. -1.
</event>
<event>
 5   0  0.6564887E-05  0.1705377E+04  0.7818609E-02  0.8758304E-01
       -1   -1    0    0    0  501  0.00000000000E+00  0.00000000000E+00  0.10471203000E+04  0.10471203001E+04  0.50400001928E-02 0.  1.
        1   -1    0    0  501    0  0.00000000000E+00  0.00000000000E+00 -0.69435929471E+03  0.69435929473E+03  0.50400001928E-02 0. -1.
    10030    2    1    2    0    0  0.00000000000E+00  0.00000000000E+00  0.35276100533E+03  0.17414795948E+04  0.17053770411E+04 0.  0.
        4    1    3    3  502    0  0.17467285506E+02 -0.10790285099E+03  0.10399352183E+04  0.10456648614E+04  0.12699999809E+01 0.  1.
       -4    1    3    3    0  502 -0.17467285506E+02  0.10790285099E+03 -0.68717421295E+03  0.69581473336E+03  0.12699999809E+01 0. -1.
</event>
<event>
 5   0  0.6615842E-05  0.1696416E+04  0.7818609E-02  0.8763411E-01
       -1   -1    0    0    0  501  0.00000000000E+00  0.00000000000E+00  0.54397410427E+03  0.54397410429E+03  0.50400001928E-02 0.  1.
        1   -1    0    0  501    0  0.00000000000E+00  0.00000000000E+00 -0.13225941048E+04  0.13225941048E+04  0.50400001928E-02 0. -1.
    10030    2    1    2    0    0  0.00000000000E+00  0.00000000000E+00 -0.77862000054E+03  0.18665682091E+04  0.16964161559E+04 0.  0.
        3    1    3    3  502    0 -0.67491294907E+03 -0.14538128361E+03 -0.93149572942E+03  0.11594513834E+04  0.10100000352E+00 0. -1.
       -3    1    3    3    0  502  0.67491294907E+03  0.14538128361E+03  0.15287572888E+03  0.70711682566E+03  0.10100000352E+00 0.  1.
</event>
<event>
 5   0  0.6601906E-05  0.1732530E+04  0.7818609E-02  0.8743026E-01
        1   -1    0    0  501    0  0.00000000000E+00  0.00000000000E+00  0.14141995983E+04  0.14141995983E+04  0.50400001928E-02 0.  1.
       -1   -1    0    0    0  501  0.00000000000E+00  0.00000000000E+00 -0.53062905849E+03  0.53062905852E+03  0.50400001928E-02 0. -1.
    10030    2    1    2    0    0  0.00000000000E+00  0.00000000000E+00  0.88357053982E+03  0.19448286568E+04  0.17325304054E+04 0.  0.
        1    1    3    3  502    0  0.41027874487E+03 -0.65351258645E+02  0.12950725055E+04  0.13600780235E+04  0.50400001928E-02 0.  1.
       -1    1    3    3    0  502 -0.41027874487E+03  0.65351258645E+02 -0.41150196563E+03  0.58475063338E+03  0.50400001928E-02 0. -1.
</event>
<event>
 5   0  0.6564887E-05  0.1699006E+04  0.7818609E-02  0.8761931E-01
       -1   -1    0    0    0  501  0.00000000000E+00  0.00000000000E+00  0.36567061547E+03  0.36567061551E+03  0.50400001928E-02 0.  1.
        1   -1    0    0  501    0  0.00000000000E+00  0.00000000000E+00 -0.19735123663E+04  0.19735123663E+04  0.50400001928E-02 0. -1.
    10030    2    1    2    0    0  0.00000000000E+00  0.00000000000E+00 -0.16078417508E+04  0.23391829818E+04  0.16990061585E+04 0.  0.
        4    1    3    3  502    0  0.25228085226E+03 -0.27123227279E+03  0.24862174245E+03  0.44612437497E+03  0.12699999809E+01 0.  1.
       -4    1    3    3    0  502 -0.25228085226E+03  0.27123227279E+03 -0.18564634933E+04  0.18930586069E+04  0.12699999809E+01 0. -1.
</event>
<event>
 5   0  0.6601906E-05  0.1699686E+04  0.7818609E-02  0.8761544E-01
       -1   -1    0    0    0  501  0.00000000000E+00  0.00000000000E+00  0.35326022225E+03  0.35326022228E+03  0.50400001928E-02 0.  1.
        1   -1    0    0  501    0  0.00000000000E+00  0.00000000000E+00 -0.20444783387E+04  0.20444783387E+04  0.50400001928E-02 0. -1.
    10030    2    1    2    0    0  0.00000000000E+00  0.00000000000E+00 -0.16912181165E+04  0.23977385610E+04  0.16996857032E+04 0.  0.
        1    1    3    3  502    0 -0.12442732536E+03  0.30908454326E+03  0.25727810431E+03  0.42096013726E+03  0.50400001928E-02 0.  1.
       -1    1    3    3    0  502  0.12442732536E+03 -0.30908454326E+03 -0.19484962208E+04  0.19767784238E+04  0.50400001928E-02 0. -1.
</event>
<event>
 5   0  0.1269175E-04  0.1701110E+04  0.7818609E-02  0.8760732E-01
       -2   -1    0    0    0  501  0.00000000000E+00  0.00000000000E+00  0.37420377285E+03  0.37420377286E+03  0.25500000920E-02 0.  1.
        2   -1    0    0  501    0  0.00000000000E+00  0.00000000000E+00 -0.19332875032E+04  0.19332875032E+04  0.25500000920E-02 0. -1.
    10030    2    1    2    0    0  0.00000000000E+00  0.00000000000E+00 -0.15590837304E+04  0.23074912761E+04  0.17011096117E+04 0.  0.
        2    1    3    3  502    0  0.91246462621E+02 -0.79894673431E+03 -0.11554598636E+04  0.14077390729E+04  0.25500000920E-02 0.  1.
       -2    1    3    3    0  502 -0.91246462621E+02  0.79894673431E+03 -0.40362386683E+03  0.89975220315E+03  0.25500000920E-02 0. -1.
</event>
<event>
 5   0  0.6564887E-05  0.1697306E+04  0.7818609E-02  0.8762902E-01
        1   -1    0    0  501    0  0.00000000000E+00  0.00000000000E+00  0.60265784155E+03  0.60265784157E+03  0.50400001928E-02 0.  1.
       -1   -1    0    0    0  501  0.00000000000E+00  0.00000000000E+00 -0.11950592015E+04  0.11950592015E+04  0.50400001928E-02 0. -1.
    10030    2    1    2    0    0  0.00000000000E+00  0.00000000000E+00 -0.59240135999E+03  0.17977170431E+04  0.16973058639E+04 0.  0.
        4    1    3    3  502    0  0.61837132116E+03  0.49066601368E+03  0.33798296840E+02  0.79011402062E+03  0.12699999809E+01 0.  1.
       -4    1    3    3    0  502 -0.61837132116E+03 -0.49066601368E+03 -0.62619965683E+03  0.10076030225E+04  0.12699999809E+01 0. -1.
</event>
<event>
 5   0  0.1269175E-04  0.1713166E+04  0.7818609E-02  0.8753891E-01
        2   -1    0    0  501    0  0.00000000000E+00  0.00000000000E+00  0.76237105581E+03  0.76237105581E+03  0.25500000920E-02 0.  1.
       -2   -1    0    0    0  501  0.00000000000E+00  0.00000000000E+00 -0.96243694885E+03  0.96243694885E+03  0.25500000920E-02 0. -1.
    10030    2    1    2    0    0  0.00000000000E+00  0.00000000000E+00 -0.20006589304E+03  0.17248080047E+04  0.17131655762E+04 0.  0.
        2    1    3    3  502    0 -0.71193768916E+03 -0.38262075963E+03 -0.38565110773E+03  0.89553374914E+03  0.25500000920E-02 0. -1.
       -2    1    3    3    0  502  0.71193768916E+03  0.38262075963E+03  0.18558521470E+03  0.82927425552E+03  0.25500000920E-02 0.  1.
</event>
<event>
 5   0  0.6601906E-05  0.1701861E+04  0.7818609E-02  0.8760303E-01
        1   -1    0    0  501    0  0.00000000000E+00  0.00000000000E+00  0.12427974848E+04  0.12427974848E+04  0.50400001928E-02 0.  1.
       -1   -1    0    0    0  501  0.00000000000E+00  0.00000000000E+00 -0.58262358980E+03  0.58262358982E+03  0.50400001928E-02 0. -1.
    10030    2    1    2    0    0  0.00000000000E+00  0.00000000000E+00  0.66017389503E+03  0.18254210747E+04  0.17018614891E+04 0.  0.
        1    1    3    3  502    0 -0.31742780564E+03 -0.50361060043E+03 -0.32208638461E+03  0.67684834922E+03  0.50400001928E-02 0. -1.
       -1    1    3    3    0  502  0.31742780564E+03  0.50361060043E+03  0.98226027964E+03  0.11485727254E+04  0.50400001928E-02 0.  1.
</event>
<event>
 5   0  0.6615842E-05  0.1701389E+04  0.7818609E-02  0.8760573E-01
        1   -1    0    0  501    0  0.00000000000E+00  0.00000000000E+00  0.51422706967E+03  0.51422706970E+03  0.50400001928E-02 0.  1.
       -1   -1    0    0    0  501  0.00000000000E+00  0.00000000000E+00 -0.14073175436E+04  0.14073175436E+04  0.50400001928E-02 0. -1.
    10030    2    1    2    0    0  0.00000000000E+00  0.00000000000E+00 -0.89309047388E+03  0.19215446133E+04  0.17013885818E+04 0.  0.
        3    1    3    3  502    0  0.72107197481E+03  0.44193976875E+03 -0.55021149825E+03  0.10089540401E+04  0.10100000352E+00 0. -1.
       -3    1    3    3    0  502 -0.72107197481E+03 -0.44193976875E+03 -0.34287897564E+03  0.91259057315E+03  0.10100000352E+00 0.  1.
</event>
<event>
 5   0  0.1269175E-04  0.1704022E+04  0.7818609E-02  0.8759074E-01
       -2   -1    0    0    0  501  0.00000000000E+00  0.00000000000E+00  0.44793918659E+03  0.44793918660E+03  0.25500000920E-02 0. -1.
        2   -1    0    0  501    0  0.00000000000E+00  0.00000000000E+00 -0.16205835026E+04  0.16205835026E+04  0.25500000920E-02 0.  1.
    10030    2    1    2    0    0  0.00000000000E+00  0.00000000000E+00 -0.11726443160E+04  0.20685226892E+04  0.17040221312E+04 0.  0.
        2    1    3    3  502    0 -0.54688080074E+03  0.71494332658E+02  0.20200003090E+03  0.58736195170E+03  0.25500000920E-02 0. -1.
       -2    1    3    3    0  502  0.54688080074E+03 -0.71494332658E+02 -0.13746443469E+04  0.14811607375E+04  0.25500000920E-02 0.  1.
</event>
<event>
 5   0  0.1255362E-04  0.1702038E+04  0.7818609E-02  0.8760203E-01
        2   -1    0    0  501    0  0.00000000000E+00  0.00000000000E+00  0.57225915999E+03  0.57225916000E+03  0.25500000920E-02 0. -1.
       -2   -1    0    0    0  501  0.00000000000E+00  0.00000000000E+00 -0.12655685835E+04  0.12655685835E+04  0.25500000920E-02 0.  1.
    10030    2    1    2    0    0  0.00000000000E+00  0.00000000000E+00 -0.69330942350E+03  0.18378277435E+04  0.17020378545E+04 0.  0.
        1    1    3    3  502    0 -0.14633456967E+03  0.53384548142E+02 -0.12500444359E+04  0.12597121925E+04  0.50400001928E-02 0.  1.
       -1    1    3    3    0  502  0.14633456967E+03 -0.53384548142E+02  0.55673501238E+03  0.57811555099E+03  0.50400001928E-02 0. -1.
</event>
<event>
 5   0  0.1333546E-04  0.1711443E+04  0.7818609E-02  0.8754865E-01
        2   -1    0    0  501    0  0.00000000000E+00  0.00000000000E+00  0.21665238692E+04  0.21665238692E+04  0.25500000920E-02 0.  1.
       -2   -1    0    0    0  501  0.00000000000E+00  0.00000000000E+00 -0.33798826940E+03  0.33798826941E+03  0.25500000920E-02 0. -1.
    10030    2    1    2    0    0  0.00000000000E+00  0.00000000000E+00  0.18285355998E+04  0.25045121386E+04  0.17114434296E+04 0.  0.
        5    1    3    3  502    0  0.28693538746E+03 -0.40303414888E+03  0.19359931005E+04  0.19982141570E+04  0.46999998093E+01 0.  1.
       -5    1    3    3    0  502 -0.28693538746E+03  0.40303414888E+03 -0.10745750075E+03  0.50629798163E+03  0.46999998093E+01 0. -1.
</event>
<event>
 5   0  0.6564887E-05  0.1710988E+04  0.7818609E-02  0.8755122E-01
        1   -1    0    0  501    0  0.00000000000E+00  0.00000000000E+00  0.11018526084E+04  0.11018526084E+04  0.50400001928E-02 0.  1.
       -1   -1    0    0    0  501  0.00000000000E+00  0.00000000000E+00 -0.66421749196E+03  0.66421749198E+03  0.50400001928E-02 0. -1.
    10030    2    1    2    0    0  0.00000000000E+00  0.00000000000E+00  0.43763511640E+03  0.17660701003E+04  0.17109877569E+04 0.  0.
        4    1    3    3  502    0  0.66189292206E+03 -0.29640436814E+03  0.68719950691E+03  0.99910087825E+03  0.12699999809E+01 0.  1.
       -4    1    3    3    0  502 -0.66189292206E+03  0.29640436814E+03 -0.24956439052E+03  0.76696922209E+03  0.12699999809E+01 0. -1.
</event>
<event>
 5   0  0.6601906E-05  0.1699305E+04  0.7818609E-02  0.8761761E-01
       -1   -1    0    0    0  501  0.00000000000E+00  0.00000000000E+00  0.10024135950E+04  0.10024135950E+04  0.50400001928E-02 0.  1.
        1   -1    0    0  501    0  0.00000000000E+00  0.00000000000E+00 -0.72017113583E+03  0.72017113585E+03  0.50400001928E-02 0. -1.
    10030    2    1    2    0    0  0.00000000000E+00  0.00000000000E+00  0.28224245915E+03  0.17225847308E+04  0.16993049606E+04 0.  0.
        1    1    3    3  502    0 -0.61503430636E+03  0.13009662834E+02  0.73521568458E+03  0.95863369032E+03  0.50400001928E-02 0.  1.
       -1    1    3    3    0  502  0.61503430636E+03 -0.13009662834E+02 -0.45297322544E+03  0.76395104052E+03  0.50400001928E-02 0. -1.
</event>
<event>
 5   0  0.6615842E-05  0.1706073E+04  0.7818609E-02  0.8757908E-01
       -1   -1    0    0    0  501  0.00000000000E+00  0.00000000000E+00  0.77737207650E+03  0.77737207651E+03  0.50400001928E-02 0. -1.
        1   -1    0    0  501    0  0.00000000000E+00  0.00000000000E+00 -0.93606551701E+03  0.93606551703E+03  0.50400001928E-02 0.  1.
    10030    2    1    2    0    0  0.00000000000E+00  0.00000000000E+00 -0.15869344051E+03  0.17134375935E+04  0.17060729114E+04 0.  0.
        3    1    3    3  502    0 -0.73664747692E+03 -0.36001072353E+03  0.15707114432E+03  0.83482248466E+03  0.10100000352E+00 0. -1.
       -3    1    3    3    0  502  0.73664747692E+03  0.36001072353E+03 -0.31576458484E+03  0.87861510888E+03  0.10100000352E+00 0.  1.
</event>
<event>
 5   0  0.1393870E-04  0.1701695E+04  0.7818609E-02  0.8760398E-01
       -2   -1    0    0    0  501  0.00000000000E+00  0.00000000000E+00  0.57431231345E+03  0.57431231346E+03  0.25500000920E-02 0. -1.
        2   -1    0    0  501    0  0.00000000000E+00  0.00000000000E+00 -0.12605367913E+04  0.12605367913E+04  0.25500000920E-02 0.  1.
    10030    2    1    2    0    0  0.00000000000E+00  0.00000000000E+00 -0.68622447784E+03  0.18348491048E+04  0.17016953908E+04 0.  0.
        3    1    3    3  502    0  0.77119999410E+03 -0.22562889063E+03 -0.41426393389E+02  0.80459554029E+03  0.10100000352E+00 0. -1.
       -3    1    3    3    0  502 -0.77119999410E+03  0.22562889063E+03 -0.64479808446E+03  0.10302535645E+04  0.10100000352E+00 0.  1.
</event>
<event>
 5   0  0.1269175E-04  0.1704087E+04  0.7818609E-02  0.8759037E-01
        2   -1    0    0  501    0  0.00000000000E+00  0.00000000000E+00  0.94932282066E+03  0.94932282067E+03  0.25500000920E-02 0.  1.
       -2   -1    0    0    0  501  0.00000000000E+00  0.00000000000E+00 -0.76473286041E+03  0.76473286041E+03  0.25500000920E-02 0. -1.
    10030    2    1    2    0    0  0.00000000000E+00  0.00000000000E+00  0.18458996026E+03  0.17140556811E+04  0.17040872702E+04 0.  0.
        2    1    3    3  502    0 -0.96996903025E+02 -0.80595724262E+03 -0.16806835666E+03  0.82898881093E+03  0.25500000920E-02 0. -1.
       -2    1    3    3    0  502  0.96996903025E+02  0.80595724262E+03  0.35265831692E+03  0.88506687014E+03  0.25500000920E-02 0.  1.
</event>
<event>
 5   0  0.6539134E-05  0.1694116E+04  0.7818609E-02  0.8764728E-01
        1   -1    0    0  501    0  0.00000000000E+00  0.00000000000E+00  0.10803471151E+04  0.10803471151E+04  0.50400001928E-02 0. -1.
       -1   -1    0    0    0  501  0.00000000000E+00  0.00000000000E+00 -0.66414476347E+03  0.66414476349E+03  0.50400001928E-02 0.  1.
    10030    2    1    2    0    0  0.00000000000E+00  0.00000000000E+00  0.41620235158E+03  0.17444918786E+04  0.16941155559E+04 0.  0.
        2    1    3    3  502    0 -0.52559805583E+03  0.49257751237E+03 -0.25082037968E+03  0.76275604544E+03  0.25500000920E-02 0.  1.
       -2    1    3    3    0  502  0.52559805583E+03 -0.49257751237E+03  0.66702273126E+03  0.98173583311E+03  0.25500000920E-02 0. -1.
</event>
<event>
 5   0  0.6539134E-05  0.1703843E+04  0.7818609E-02  0.8759176E-01
        1   -1    0    0  501    0  0.00000000000E+00  0.00000000000E+00  0.20724344153E+04  0.20724344153E+04  0.50400001928E-02 0. -1.
       -1   -1    0    0    0  501  0.00000000000E+00  0.00000000000E+00 -0.35020161319E+03  0.35020161323E+03  0.50400001928E-02 0.  1.
    10030    2    1    2    0    0  0.00000000000E+00  0.00000000000E+00  0.17222328021E+04  0.24226360285E+04  0.17038425696E+04 0.  0.
        2    1    3    3  502    0 -0.61269316068E+03 -0.45111592611E+03  0.14060295728E+04  0.15986924806E+04  0.25500000920E-02 0.  1.
       -2    1    3    3    0  502  0.61269316068E+03  0.45111592611E+03  0.31620322928E+03  0.82394354791E+03  0.25500000920E-02 0. -1.
</event>
<event>
 5   0  0.1285639E-04  0.1700919E+04  0.7818609E-02  0.8760840E-01
        2   -1    0    0  501    0  0.00000000000E+00  0.00000000000E+00  0.11837548198E+04  0.11837548198E+04  0.25500000920E-02 0.  1.
       -2   -1    0    0    0  501  0.00000000000E+00  0.00000000000E+00 -0.61100607859E+03  0.61100607860E+03  0.25500000920E-02 0. -1.
    10030    2    1    2    0    0  0.00000000000E+00  0.00000000000E+00  0.57274874120E+03  0.17947608984E+04  0.17009190345E+04 0.  0.
        4    1    3    3  502    0 -0.14264856706E+03 -0.82823217659E+03  0.14894818404E+03  0.85352464900E+03  0.12699999809E+01 0. -1.
       -4    1    3    3    0  502  0.14264856706E+03  0.82823217659E+03  0.42380055717E+03  0.94123624939E+03  0.12699999809E+01 0.  1.
</event>
<event>
 5   0  0.6615842E-05  0.1695559E+04  0.7818609E-02  0.8763901E-01
       -1   -1    0    0    0  501  0.00000000000E+00  0.00000000000E+00  0.10410326022E+04  0.10410326022E+04  0.50400001928E-02 0. -1.
        1   -1    0    0  501    0  0.00000000000E+00  0.00000000000E+00 -0.69040115386E+03  0.69040115388E+03  0.50400001928E-02 0.  1.
    10030    2    1    2    0    0  0.00000000000E+00  0.00000000000E+00  0.35063144831E+03  0.17314337561E+04  0.16955590344E+04 0.  0.
        3    1    3    3  502    0  0.60367504677E+03  0.37821487777E+03  0.64467093919E+03  0.96076567689E+03  0.10100000352E+00 0. -1.
       -3    1    3    3    0  502 -0.60367504677E+03 -0.37821487777E+03 -0.29403949088E+03  0.77066807917E+03  0.10100000352E+00 0.  1.
</event>
<event>
 5   0  0.1255362E-04  0.1695097E+04  0.7818609E-02  0.8764166E-01
       -2   -1    0    0    0  501  0.00000000000E+00  0.00000000000E+00  0.71687291719E+03  0.71687291720E+03  0.25500000920E-02 0.  1.
        2   -1    0    0  501    0  0.00000000000E+00  0.00000000000E+00 -0.10020439075E+04  0.10020439075E+04  0.25500000920E-02 0. -1.
    10030    2    1    2    0    0  0.00000000000E+00  0.00000000000E+00 -0.28517099032E+03  0.17189168247E+04  0.16950966216E+04 0.  0.
        1    1    3    3  502    0  0.67093936951E+03  0.38351937276E+03 -0.49545736640E+03  0.91800040783E+03  0.50400001928E-02 0. -1.
       -1    1    3    3    0  502 -0.67093936951E+03 -0.38351937276E+03  0.21028637608E+03  0.80091641688E+03  0.50400001928E-02 0.  1.
</event>
<event>
 5   0  0.6539134E-05  0.1694358E+04  0.7818609E-02  0.8764589E-01
       -1   -1    0    0    0  501  0.00000000000E+00  0.00000000000E+00  0.59254808016E+03  0.59254808018E+03  0.50400001928E-02 0. -1.
        1   -1    0    0  501    0  0.00000000000E+00  0.00000000000E+00 -0.12112300295E+04  0.12112300295E+04  0.50400001928E-02 0.  1.
    10030    2    1    2    0    0  0.00000000000E+00  0.00000000000E+00 -0.61868194934E+03  0.18037781097E+04  0.16943577292E+04 0.  0.
        2    1    3    3  502    0  0.38832032168E+03  0.70929052943E+03 -0.57829487261E+03  0.99413816296E+03  0.25500000920E-02 0. -1.
       -2    1    3    3    0  502 -0.38832032168E+03 -0.70929052943E+03 -0.40387076732E+02  0.80963994673E+03  0.25500000920E-02 0.  1.
</event>
<event>
 5   0  0.6564887E-05  0.1701157E+04  0.7818609E-02  0.8760705E-01
       -1   -1    0    0    0  501  0.00000000000E+00  0.00000000000E+00  0.37540163036E+03  0.37540163039E+03  0.50400001928E-02 0. -1.
        1   -1    0    0  501    0  0.00000000000E+00  0.00000000000E+00 -0.19272255710E+04  0.19272255711E+04  0.50400001928E-02 0.  1.
    10030    2    1    2    0    0  0.00000000000E+00  0.00000000000E+00 -0.15518239407E+04  0.23026272014E+04  0.17011568082E+04 0.  0.
        4    1    3    3  502    0  0.39328430405E+03 -0.75282191657E+03 -0.83747505126E+03  0.11928031926E+04  0.12699999809E+01 0.  1.
       -4    1    3    3    0  502 -0.39328430405E+03  0.75282191657E+03 -0.71434888942E+03  0.11098240088E+04  0.12699999809E+01 0. -1.
</event>
<event>
 5   0  0.1285639E-04  0.1708793E+04  0.7818609E-02  0.8756365E-01
       -2   -1    0    0    0  501  0.00000000000E+00  0.00000000000E+00  0.86816987388E+03  0.86816987388E+03  0.25500000920E-02 0.  1.
        2   -1    0    0  501    0  0.00000000000E+00  0.00000000000E+00 -0.84084208892E+03  0.84084208893E+03  0.25500000920E-02 0. -1.
    10030    2    1    2    0    0  0.00000000000E+00  0.00000000000E+00  0.27327784952E+02  0.17090119628E+04  0.17087934577E+04 0.  0.
        4    1    3    3  502    0 -0.38745853922E+03  0.57808132086E+01  0.77522998776E+03  0.86668372792E+03  0.12699999809E+01 0.  1.
       -4    1    3    3    0  502  0.38745853922E+03 -0.57808132086E+01 -0.74790220281E+03  0.84232823489E+03  0.12699999809E+01 0. -1.
</event>
<event>
 5   0  0.1269175E-04  0.1702237E+04  0.7818609E-02  0.8760090E-01
        2   -1    0    0  501    0  0.00000000000E+00  0.00000000000E+00  0.64951085942E+03  0.64951085943E+03  0.25500000920E-02 0. -1.
       -2   -1    0    0    0  501  0.00000000000E+00  0.00000000000E+00 -0.11153044625E+04  0.11153044625E+04  0.25500000920E-02 0.  1.
    10030    2    1    2    0    0  0.00000000000E+00  0.00000000000E+00 -0.46579360305E+03  0.17648153219E+04  0.17022365992E+04 0.  0.
        2    1    3    3  502    0  0.25794659959E+03  0.54071346955E+02 -0.10719332536E+04  0.11038573544E+04  0.25500000920E-02 0.  1.
       -2    1    3    3    0  502 -0.25794659959E+03 -0.54071346955E+02  0.60613965053E+03  0.66095796747E+03  0.25500000920E-02 0. -1.
</event>
<event>
 5   0  0.6834837E-05  0.1711801E+04  0.7818609E-02  0.8754662E-01
        1   -1    0    0  501    0  0.00000000000E+00  0.00000000000E+00  0.15864329861E+04  0.15864329861E+04  0.50400001928E-02 0.  1.
       -1   -1    0    0    0  501  0.00000000000E+00  0.00000000000E+00 -0.46176888247E+03  0.46176888249E+03  0.50400001928E-02 0. -1.
    10030    2    1    2    0    0  0.00000000000E+00  0.00000000000E+00  0.11246641036E+04  0.20482018686E+04  0.17118006743E+04 0.  0.
        5    1    3    3  502    0  0.29849456670E+02 -0.60529711056E+03  0.12854767539E+04  0.14211784395E+04  0.46999998093E+01 0.  1.
       -5    1    3    3    0  502 -0.29849456670E+02  0.60529711056E+03 -0.16081265028E+03  0.62702342907E+03  0.46999998093E+01 0. -1.
</event>
<event>
 5   0  0.1333546E-04  0.1710661E+04  0.7818609E-02  0.8755307E-01
       -2   -1    0    0    0  501  0.00000000000E+00  0.00000000000E+00  0.45947595204E+03  0.45947595205E+03  0.25500000920E-02 0. -1.
        2   -1    0    0  501    0  0.00000000000E+00  0.00000000000E+00 -0.15922275612E+04  0.15922275612E+04  0.25500000920E-02 0.  1.
    10030    2    1    2    0    0  0.00000000000E+00  0.00000000000E+00 -0.11327516091E+04  0.20517035132E+04  0.17106610120E+04 0.  0.
        5    1    3    3  502    0  0.47321489486E+03  0.66718295645E+03 -0.86622315054E+03  0.11913983677E+04  0.46999998093E+01 0.  1.
       -5    1    3    3    0  502 -0.47321489486E+03 -0.66718295645E+03 -0.26652845858E+03  0.86030514548E+03  0.46999998093E+01 0. -1.
</event>
<event>
 5   0  0.1269175E-04  0.1693535E+04  0.7818609E-02  0.8765060E-01
        2   -1    0    0  501    0  0.00000000000E+00  0.00000000000E+00  0.22269813048E+04  0.22269813048E+04  0.25500000920E-02 0.  1.
       -2   -1    0    0    0  501  0.00000000000E+00  0.00000000000E+00 -0.32196740211E+03  0.32196740212E+03  0.25500000920E-02 0. -1.
    10030    2    1    2    0    0  0.00000000000E+00  0.00000000000E+00  0.19050139027E+04  0.25489487069E+04  0.16935352199E+04 0.  0.
        2    1    3    3  502    0 -0.50076528145E+03 -0.23628972923E+03  0.19167341232E+04  0.19951111253E+04  0.25500000920E-02 0.  1.
       -2    1    3    3    0  502  0.50076528145E+03  0.23628972923E+03 -0.11720220499E+02  0.55383758162E+03  0.25500000920E-02 0. -1.
</event>
<event>
 5   0  0.4720875E-05  0.1693371E+04  0.7818609E-02  0.8765154E-01
        4   -1    0    0  501    0  0.00000000000E+00  0.00000000000E+00  0.35169426464E+03  0.35169655767E+03  0.12699999809E+01 0.  1.
       -4   -1    0    0    0  501  0.00000000000E+00  0.00000000000E+00 -0.20383427955E+04  0.20383431911E+04  0.12699999809E+01 0. -1.
    10030    2    1    2    0    0  0.00000000000E+00  0.00000000000E+00 -0.16866485308E+04  0.23900397488E+04  0.16933714106E+04 0.  0.
        3    1    3    3  502    0 -0.17356843144E+02  0.38544037540E+03 -0.19070540592E+04  0.19456928684E+04  0.10100000352E+00 0. -1.
       -3    1    3    3    0  502  0.17356843144E+02 -0.38544037540E+03  0.22040552839E+03  0.44434688042E+03  0.10100000352E+00 0.  1.
</event>
<event>
 5   0  0.6615842E-05  0.1725792E+04  0.7818609E-02  0.8746789E-01
       -1   -1    0    0    0  501  0.00000000000E+00  0.00000000000E+00  0.63774988845E+03  0.63774988847E+03  0.50400001928E-02 0.  1.
        1   -1    0    0  501    0  0.00000000000E+00  0.00000000000E+00 -0.11675264456E+04  0.11675264456E+04  0.50400001928E-02 0. -1.
    10030    2    1    2    0    0  0.00000000000E+00  0.00000000000E+00 -0.52977655711E+03  0.18052763340E+04  0.17257924098E+04 0.  0.
        3    1    3    3  502    0  0.42044121466E+03  0.20466278003E+03  0.49372424384E+03  0.68001566723E+03  0.10100000352E+00 0.  1.
       -3    1    3    3    0  502 -0.42044121466E+03 -0.20466278003E+03 -0.10235008010E+04  0.11252606668E+04  0.10100000352E+00 0. -1.
</event>
<event>
 5   0  0.1255362E-04  0.1699057E+04  0.7818609E-02  0.8761902E-01
        2   -1    0    0  501    0  0.00000000000E+00  0.00000000000E+00  0.48717657543E+03  0.48717657544E+03  0.25500000920E-02 0. -1.
       -2   -1    0    0    0  501  0.00000000000E+00  0.00000000000E+00 -0.14813911501E+04  0.14813911501E+04  0.25500000920E-02 0.  1.
    10030    2    1    2    0    0  0.00000000000E+00  0.00000000000E+00 -0.99421457466E+03  0.19685677255E+04  0.16990574650E+04 0.  0.
        1    1    3    3  502    0 -0.69376936139E+03 -0.48891974571E+03 -0.45468485221E+03  0.96285863937E+03  0.50400001928E-02 0.  1.
       -1    1    3    3    0  502  0.69376936139E+03  0.48891974571E+03 -0.53952972245E+03  0.10057090862E+04  0.50400001928E-02 0. -1.
</event>
<event>
 5   0  0.6615842E-05  0.1700494E+04  0.7818609E-02  0.8761083E-01
       -1   -1    0    0    0  501  0.00000000000E+00  0.00000000000E+00  0.67447473006E+03  0.67447473008E+03  0.50400001928E-02 0. -1.
        1   -1    0    0  501    0  0.00000000000E+00  0.00000000000E+00 -0.10718264448E+04  0.10718264448E+04  0.50400001928E-02 0.  1.
    10030    2    1    2    0    0  0.00000000000E+00  0.00000000000E+00 -0.39735171470E+03  0.17463011748E+04  0.17004938718E+04 0.  0.
        3    1    3    3  502    0  0.52504807758E+03 -0.66321344943E+03 -0.11038144170E+03  0.85306015975E+03  0.10100000352E+00 0. -1.
       -3    1    3    3    0  502 -0.52504807758E+03  0.66321344943E+03 -0.28697027300E+03  0.89324101510E+03  0.10100000352E+00 0.  1.
</event>
<event>
 5   0  0.1269175E-04  0.1700762E+04  0.7818609E-02  0.8760930E-01
       -2   -1    0    0    0  501  0.00000000000E+00  0.00000000000E+00  0.33824677478E+03  0.33824677478E+03  0.25500000920E-02 0.  1.
        2   -1    0    0  501    0  0.00000000000E+00  0.00000000000E+00 -0.21379306175E+04  0.21379306175E+04  0.25500000920E-02 0. -1.
    10030    2    1    2    0    0  0.00000000000E+00  0.00000000000E+00 -0.17996838427E+04  0.24761773923E+04  0.17007623421E+04 0.  0.
        2    1    3    3  502    0  0.56407509039E+03 -0.11361745216E+02 -0.18262001000E+04  0.19113651148E+04  0.25500000920E-02 0. -1.
       -2    1    3    3    0  502 -0.56407509039E+03  0.11361745216E+02  0.26516257305E+02  0.56481227745E+03  0.25500000920E-02 0.  1.
</event>
<event>
 5   0  0.1393870E-04  0.1694346E+04  0.7818609E-02  0.8764596E-01
        2   -1    0    0  501    0  0.00000000000E+00  0.00000000000E+00  0.10556524904E+04  0.10556524904E+04  0.25500000920E-02 0. -1.
       -2   -1    0    0    0  501  0.00000000000E+00  0.00000000000E+00 -0.67986576182E+03  0.67986576182E+03  0.25500000920E-02 0.  1.
    10030    2    1    2    0    0  0.00000000000E+00  0.00000000000E+00  0.37578672855E+03  0.17355182522E+04  0.16943458733E+04 0.  0.
        3    1    3    3  502    0 -0.42200762647E+02 -0.51416085753E+03 -0.50041761295E+03  0.71872114852E+03  0.10100000352E+00 0.  1.
       -3    1    3    3    0  502  0.42200762647E+02  0.51416085753E+03  0.87620434149E+03  0.10167971037E+04  0.10100000352E+00 0. -1.
</event>
<event>
 5   0  0.1255362E-04  0.1695170E+04  0.7818609E-02  0.8764124E-01
       -2   -1    0    0    0  501  0.00000000000E+00  0.00000000000E+00  0.69795178276E+03  0.69795178276E+03  0.25500000920E-02 0. -1.
        2   -1    0    0  501    0  0.00000000000E+00  0.00000000000E+00 -0.10292975582E+04  0.10292975582E+04  0.25500000920E-02 0.  1.
    10030    2    1    2    0    0  0.00000000000E+00  0.00000000000E+00 -0.33134577546E+03  0.17272493410E+04  0.16951696856E+04 0.  0.
        1    1    3    3  502    0 -0.65061120838E+03 -0.28673619945E+03  0.30445597194E+03  0.77343780061E+03  0.50400001928E-02 0. -1.
       -1    1    3    3    0  502  0.65061120838E+03  0.28673619945E+03 -0.63580174740E+03  0.95381154038E+03  0.50400001928E-02 0.  1.
</event>
<event>
 5   0  0.1333546E-04  0.1701000E+04  0.7818609E-02  0.8760794E-01
        2   -1    0    0  501    0  0.00000000000E+00  0.00000000000E+00  0.26219651793E+04  0.26219651793E+04  0.25500000920E-02 0. -1.
       -2   -1    0    0    0  501  0.00000000000E+00  0.00000000000E+00 -0.27588109661E+03  0.27588109662E+03  0.25500000920E-02 0.  1.
    10030    2    1    2    0    0  0.00000000000E+00  0.00000000000E+00  0.23460840827E+04  0.28978462759E+04  0.17010004455E+04 0.  0.
        5    1    3    3  502    0  0.13003866836E+03 -0.44733343284E+03  0.23852572239E+04  0.24303274202E+04  0.46999998093E+01 0. -1.
       -5    1    3    3    0  502 -0.13003866836E+03  0.44733343284E+03 -0.39173141226E+02  0.46751885566E+03  0.46999998093E+01 0.  1.
</event>
<event>
 5   0  0.6564887E-05  0.1702137E+04  0.7818609E-02  0.8760146E-01
       -1   -1    0    0    0  501  0.00000000000E+00  0.00000000000E+00  0.88914073712E+03  0.88914073713E+03  0.50400001928E-02 0. -1.
        1   -1    0    0  501    0  0.00000000000E+00  0.00000000000E+00 -0.81462667013E+03  0.81462667015E+03  0.50400001928E-02 0.  1.
    10030    2    1    2    0    0  0.00000000000E+00  0.00000000000E+00  0.74514066982E+02  0.17037674073E+04  0.17021371954E+04 0.  0.
        4    1    3    3  502    0  0.73118012539E+03  0.43552172046E+03  0.33703939884E+02  0.85172830951E+03  0.12699999809E+01 0.  1.
       -4    1    3    3    0  502 -0.73118012539E+03 -0.43552172046E+03  0.40810127098E+02  0.85203909777E+03  0.12699999809E+01 0. -1.
</event>
<event>
 5   0  0.6834837E-05  0.1698112E+04  0.7818609E-02  0.8762442E-01
        1   -1    0    0  501    0  0.00000000000E+00  0.00000000000E+00  0.65825260015E+03  0.65825260017E+03  0.50400001928E-02 0.  1.
       -1   -1    0    0    0  501  0.00000000000E+00  0.00000000000E+00 -0.10951661916E+04  0.10951661916E+04  0.50400001928E-02 0. -1.
    10030    2    1    2    0    0  0.00000000000E+00  0.00000000000E+00 -0.43691359142E+03  0.17534187918E+04  0.16981118847E+04 0.  0.
        5    1    3    3  502    0 -0.21092447127E+03 -0.76334982939E+03  0.97586795799E+02  0.79795824911E+03  0.46999998093E+01 0.  1.
       -5    1    3    3    0  502  0.21092447127E+03  0.76334982939E+03 -0.53450038722E+03  0.95546054264E+03  0.46999998093E+01 0. -1.
</event>
<event>
 5   0  0.1285639E-04  0.1688196E+04  0.7818609E-02  0.8768126E-01
        2   -1    0    0  501    0  0.00000000000E+00  0.00000000000E+00  0.17998328161E+04  0.17998328161E+04  0.25500000920E-02 0. -1.
       -2   -1    0    0    0  501  0.00000000000E+00  0.00000000000E+00 -0.39587071371E+03  0.39587071372E+03  0.25500000920E-02 0.  1.
    10030    2    1    2    0    0  0.00000000000E+00  0.00000000000E+00  0.14039621024E+04  0.21957035299E+04  0.16881956066E+04 0.  0.
        4    1    3    3  502    0 -0.54461974734E+03  0.57762099489E+03  0.10749733742E+04  0.13363480277E+04  0.12699999809E+01 0.  1.
       -4    1    3    3    0  502  0.54461974734E+03 -0.57762099489E+03  0.32898872820E+03  0.85935550217E+03  0.12699999809E+01 0. -1.
</event>
<event>
 5   0  0.6564887E-05  0.1701239E+04  0.7818609E-02  0.8760658E-01
       -1   -1    0    0    0  501  0.00000000000E+00  0.00000000000E+00  0.54134573359E+03  0.54134573361E+03  0.50400001928E-02 0. -1.
        1   -1    0    0  501    0  0.00000000000E+00  0.00000000000E+00 -0.13365833659E+04  0.13365833659E+04  0.50400001928E-02 0.  1.
    10030    2    1    2    0    0  0.00000000000E+00  0.00000000000E+00 -0.79523763233E+03  0.18779290995E+04  0.17012391986E+04 0.  0.
        4    1    3    3  502    0 -0.34069200043E+03  0.76359913631E+03 -0.57003803401E+03  0.10119780893E+04  0.12699999809E+01 0. -1.
       -4    1    3    3    0  502  0.34069200043E+03 -0.76359913631E+03 -0.22519959832E+03  0.86595101023E+03  0.12699999809E+01 0.  1.
</event>
<event>
 5   0  0.6601906E-05  0.1698842E+04  0.7818609E-02  0.8762025E-01
       -1   -1    0    0    0  501  0.00000000000E+00  0.00000000000E+00  0.52645082463E+03  0.52645082465E+03  0.50400001928E-02 0. -1.
        1   -1    0    0  501    0  0.00000000000E+00  0.00000000000E+00 -0.13705288891E+04  0.13705288891E+04  0.50400001928E-02 0.  1.
    10030    2    1    2    0    0  0.00000000000E+00  0.00000000000E+00 -0.84407806448E+03  0.18969797138E+04  0.16988420337E+04 0.  0.
        1    1    3    3  502    0 -0.20492872205E+03 -0.32367777799E+03 -0.12685845293E+04  0.13251678358E+04  0.50400001928E-02 0.  1.
       -1    1    3    3    0  502  0.20492872205E+03  0.32367777799E+03  0.42450646481E+03  0.57181187796E+03  0.50400001928E-02 0. -1.
</event>
<event>
 5   0  0.1255362E-04  0.1698600E+04  0.7818609E-02  0.8762163E-01
        2   -1    0    0  501    0  0.00000000000E+00  0.00000000000E+00  0.99697603509E+03  0.99697603509E+03  0.25500000920E-02 0. -1.
       -2   -1    0    0    0  501  0.00000000000E+00  0.00000000000E+00 -0.72349830438E+03  0.72349830439E+03  0.25500000920E-02 0.  1.
    10030    2    1    2    0    0  0.00000000000E+00  0.00000000000E+00  0.27347773071E+03  0.17204743395E+04  0.16985999775E+04 0.  0.
        1    1    3    3  502    0 -0.58830328839E+03 -0.25673481312E+03 -0.42656781616E+03  0.77069684390E+03  0.50400001928E-02 0.  1.
       -1    1    3    3    0  502  0.58830328839E+03  0.25673481312E+03  0.70004554687E+03  0.94977749558E+03  0.50400001928E-02 0. -1.
</event>
<event>
 5   0  0.6834837E-05  0.1695762E+04  0.7818609E-02  0.8763785E-01
       -1   -1    0    0    0  501  0.00000000000E+00  0.00000000000E+00  0.62100798477E+03  0.62100798479E+03  0.50400001928E-02 0.  1.
        1   -1    0    0  501    0  0.00000000000E+00  0.00000000000E+00 -0.11576372719E+04  0.11576372719E+04  0.50400001928E-02 0. -1.
    10030    2    1    2    0    0  0.00000000000E+00  0.00000000000E+00 -0.53662928716E+03  0.17786452567E+04  0.16957617632E+04 0.  0.
        5    1    3    3  502    0 -0.66415568837E+03  0.52679104563E+03 -0.28549559260E+03  0.89450623673E+03  0.46999998093E+01 0.  1.
       -5    1    3    3    0  502  0.66415568837E+03 -0.52679104563E+03 -0.25113369456E+03  0.88413902001E+03  0.46999998093E+01 0. -1.
</event>
<event>
 5   0  0.1285639E-04  0.1699214E+04  0.7818609E-02  0.8761813E-01
        2   -1    0    0  501    0  0.00000000000E+00  0.00000000000E+00  0.16009048341E+04  0.16009048341E+04  0.25500000920E-02 0. -1.
       -2   -1    0    0    0  501  0.00000000000E+00  0.00000000000E+00 -0.45088992217E+03  0.45088992218E+03  0.25500000920E-02 0.  1.
    10030    2    1    2    0    0  0.00000000000E+00  0.00000000000E+00  0.11500149119E+04  0.20517947563E+04  0.16992137665E+04 0.  0.
        4    1    3    3  502    0  0.33120314571E+03 -0.62079006365E+03  0.12844505756E-01  0.70361739598E+03  0.12699999809E+01 0.  1.
       -4    1    3    3    0  502 -0.33120314571E+03  0.62079006365E+03  0.11500020674E+04  0.13481773603E+04  0.12699999809E+01 0. -1.
</event>
<event>
 5   0  0.1255362E-04  0.1727338E+04  0.7818609E-02  0.8745924E-01
        2   -1    0    0  501    0  0.00000000000E+00  0.00000000000E+00  0.14152174016E+04  0.14152174016E+04  0.25500000920E-02 0.  1.
       -2   -1    0    0    0  501  0.00000000000E+00  0.00000000000E+00 -0.52707379183E+03  0.52707379184E+03  0.25500000920E-02 0. -1.
    10030    2    1    2    0    0  0.00000000000E+00  0.00000000000E+00  0.88814360979E+03  0.19422911935E+04  0.17273378386E+04 0.  0.
        1    1    3    3  502    0  0.60535035120E+03 -0.12568788030E+03 -0.23403058894E+03  0.66107246769E+03  0.50400001928E-02 0. -1.
       -1    1    3    3    0  502 -0.60535035120E+03  0.12568788030E+03  0.11221741987E+04  0.12812187258E+04  0.50400001928E-02 0.  1.
</event>
<event>
 5   0  0.1393870E-04  0.1699782E+04  0.7818609E-02  0.8761489E-01
        2   -1    0    0  501    0  0.00000000000E+00  0.00000000000E+00  0.15340169466E+04  0.15340169466E+04  0.25500000920E-02 0. -1.
       -2   -1    0    0    0  501  0.00000000000E+00  0.00000000000E+00 -0.47086481224E+03  0.47086481225E+03  0.25500000920E-02 0.  1.
    10030    2    1    2    0    0  0.00000000000E+00  0.00000000000E+00  0.10631521344E+04  0.20048817589E+04  0.16997818702E+04 0.  0.
        3    1    3    3  502    0 -0.67500208293E+03  0.50713279948E+03  0.41659448203E+03  0.94146824744E+03  0.10100000352E+00 0.  1.
       -3    1    3    3    0  502  0.67500208293E+03 -0.50713279948E+03  0.64655765234E+03  0.10634135114E+04  0.10100000352E+00 0. -1.
</event>
<event>
 5   0  0.1269175E-04  0.1704054E+04  0.7818609E-02  0.8759056E-01
       -2   -1    0    0    0  501  0.00000000000E+00  0.00000000000E+00  0.10176327987E+04  0.10176327987E+04  0.25500000920E-02 0.  1.
        2   -1    0    0  501    0  0.00000000000E+00  0.00000000000E+00 -0.71337113593E+03  0.71337113594E+03  0.25500000920E-02 0. -1.
    10030    2    1    2    0    0  0.00000000000E+00  0.00000000000E+00  0.30426166272E+03  0.17310039346E+04  0.17040538319E+04 0.  0.
        2    1    3    3  502    0 -0.73802598381E+03  0.27537622403E+03 -0.17771277383E+03  0.80752476589E+03  0.25500000920E-02 0. -1.
       -2    1    3    3    0  502  0.73802598381E+03 -0.27537622403E+03  0.48197443655E+03  0.92347916870E+03  0.25500000920E-02 0.  1.
</event>
<event>
 5   0  0.1255362E-04  0.1693962E+04  0.7818609E-02  0.8764815E-01
        2   -1    0    0  501    0  0.00000000000E+00  0.00000000000E+00  0.29027574785E+04  0.29027574785E+04  0.25500000920E-02 0. -1.
       -2   -1    0    0    0  501  0.00000000000E+00  0.00000000000E+00 -0.24713642367E+03  0.24713642368E+03  0.25500000920E-02 0.  1.
    10030    2    1    2    0    0  0.00000000000E+00  0.00000000000E+00  0.26556210548E+04  0.31498939021E+04  0.16939623396E+04 0.  0.
        1    1    3    3  502    0  0.21393730279E+03 -0.26922640429E+03  0.27671091949E+04  0.27883947573E+04  0.50400001928E-02 0. -1.
       -1    1    3    3    0  502 -0.21393730279E+03  0.26922640429E+03 -0.11148814009E+03  0.36149914481E+03  0.50400001928E-02 0.  1.
</event>
<event>
 5   0  0.1333546E-04  0.1702645E+04  0.7818609E-02  0.8759857E-01
       -2   -1    0    0    0  501  0.00000000000E+00  0.00000000000E+00  0.94296045308E+03  0.94296045309E+03  0.25500000920E-02 0.  1.
        2   -1    0    0  501    0  0.00000000000E+00  0.00000000000E+00 -0.76859027053E+03  0.76859027053E+03  0.25500000920E-02 0. -1.
    10030    2    1    2    0    0  0.00000000000E+00  0.00000000000E+00  0.17437018255E+03  0.17115507236E+04  0.17026452710E+04 0.  0.
        5    1    3    3  502    0  0.58905645138E+03 -0.10648334984E+03 -0.52129234192E+03  0.79378460708E+03  0.46999998093E+01 0. -1.
       -5    1    3    3    0  502 -0.58905645138E+03  0.10648334984E+03  0.69566252448E+03  0.91776611653E+03  0.46999998093E+01 0.  1.
</event>
<event>
 5   0  0.1269175E-04  0.1701359E+04  0.7818609E-02  0.8760590E-01
       -2   -1    0    0    0  501  0.00000000000E+00  0.00000000000E+00  0.29486738147E+03  0.29486738148E+03  0.25500000920E-02 0. -1.
        2   -1    0    0  501    0  0.00000000000E+00  0.00000000000E+00 -0.24541732815E+04  0.24541732815E+04  0.25500000920E-02 0.  1.
    10030    2    1    2    0    0  0.00000000000E+00  0.00000000000E+00 -0.21593059000E+04  0.27490406630E+04  0.17013590441E+04 0.  0.
        2    1    3    3  502    0 -0.83500174589E+03  0.16255416141E+03 -0.10828349421E+04  0.13770197104E+04  0.25500000920E-02 0.  1.
       -2    1    3    3    0  502  0.83500174589E+03 -0.16255416141E+03 -0.10764709579E+04  0.13720209526E+04  0.25500000920E-02 0. -1.
</event>
<event>
 5   0  0.6615842E-05  0.1697633E+04  0.7818609E-02  0.8762715E-01
        1   -1    0    0  501    0  0.00000000000E+00  0.00000000000E+00  0.78192911891E+03  0.78192911892E+03  0.50400001928E-02 0.  1.
       -1   -1    0    0    0  501  0.00000000000E+00  0.00000000000E+00 -0.92142582274E+03  0.92142582276E+03  0.50400001928E-02 0. -1.
    10030    2    1    2    0    0  0.00000000000E+00  0.00000000000E+00 -0.13949670383E+03  0.17033549417E+04  0.16976332722E+04 0.  0.
        3    1    3    3  502    0  0.29991866617E+03 -0.84099112494E+02 -0.86200810747E+03  0.91655979324E+03  0.10100000352E+00 0. -1.
       -3    1    3    3    0  502 -0.29991866617E+03  0.84099112494E+02  0.72251140363E+03  0.78679514844E+03  0.10100000352E+00 0.  1.
</event>
<event>
 5   0  0.6601906E-05  0.1702483E+04  0.7818609E-02  0.8759949E-01
        1   -1    0    0  501    0  0.00000000000E+00  0.00000000000E+00  0.10494933017E+04  0.10494933017E+04  0.50400001928E-02 0.  1.
       -1   -1    0    0    0  501  0.00000000000E+00  0.00000000000E+00 -0.69043999805E+03  0.69043999807E+03  0.50400001928E-02 0. -1.
    10030    2    1    2    0    0  0.00000000000E+00  0.00000000000E+00  0.35905330363E+03  0.17399332998E+04  0.17024830727E+04 0.  0.
        1    1    3    3  502    0 -0.75019270434E+03  0.40211654486E+03  0.16808466748E+03  0.86760547761E+03  0.50400001928E-02 0. -1.
       -1    1    3    3    0  502  0.75019270434E+03 -0.40211654486E+03  0.19096863615E+03  0.87232782216E+03  0.50400001928E-02 0.  1.
</event>
<event>
 5   0  0.1269175E-04  0.1697515E+04  0.7818609E-02  0.8762783E-01
       -2   -1    0    0    0  501  0.00000000000E+00  0.00000000000E+00  0.91700222014E+03  0.91700222015E+03  0.25500000920E-02 0. -1.
        2   -1    0    0  501    0  0.00000000000E+00  0.00000000000E+00 -0.78559203104E+03  0.78559203104E+03  0.25500000920E-02 0.  1.
    10030    2    1    2    0    0  0.00000000000E+00  0.00000000000E+00  0.13141018911E+03  0.17025942512E+04  0.16975154039E+04 0.  0.
        2    1    3    3  502    0  0.49791140003E+03  0.68420913283E+03 -0.30775370045E+00  0.84620210024E+03  0.25500000920E-02 0.  1.
       -2    1    3    3    0  502 -0.49791140003E+03 -0.68420913283E+03  0.13171794281E+03  0.85639215094E+03  0.25500000920E-02 0. -1.
</event>
<event>
 5   0  0.1333546E-04  0.1707512E+04  0.7818609E-02  0.8757092E-01
        2   -1    0    0  501    0  0.00000000000E+00  0.00000000000E+00  0.73380078841E+03  0.73380078842E+03  0.25500000920E-02 0.  1.
       -2   -1    0    0    0  501  0.00000000000E+00  0.00000000000E+00 -0.99332025489E+03  0.99332025489E+03  0.25500000920E-02 0. -1.
    10030    2    1    2    0    0  0.00000000000E+00  0.00000000000E+00 -0.25951946648E+03  0.17271210433E+04  0.17075118579E+04 0.  0.
        5    1    3    3  502    0 -0.23982187052E+02 -0.65028733527E+03  0.42924271234E+03  0.77956408319E+03  0.46999998093E+01 0.  1.
       -5    1    3    3    0  502  0.23982187052E+02  0.65028733527E+03 -0.68876217881E+03  0.94755696012E+03  0.46999998093E+01 0. -1.
</event>
<event>
 5   0  0.1333546E-04  0.1700545E+04  0.7818609E-02  0.8761053E-01
       -2   -1    0    0    0  501  0.00000000000E+00  0.00000000000E+00  0.86650866483E+03  0.86650866483E+03  0.25500000920E-02 0. -1.
        2   -1    0    0  501    0  0.00000000000E+00  0.00000000000E+00 -0.83434083245E+03  0.83434083245E+03  0.25500000920E-02 0.  1.
    10030    2    1    2    0    0  0.00000000000E+00  0.00000000000E+00  0.32167832375E+02  0.17008494973E+04  0.17005452781E+04 0.  0.
        5    1    3    3  502    0  0.79796570330E+03  0.29357467578E+03  0.13610250169E+02  0.85037796468E+03  0.46999998093E+01 0.  1.
       -5    1    3    3    0  502 -0.79796570330E+03 -0.29357467578E+03  0.18557582206E+02  0.85047153260E+03  0.46999998093E+01 0. -1.
</event>
<event>
 5   0  0.6564887E-05  0.1714201E+04  0.7818609E-02  0.8753306E-01
        1   -1    0    0  501    0  0.00000000000E+00  0.00000000000E+00  0.68007789249E+03  0.68007789251E+03  0.50400001928E-02 0. -1.
       -1   -1    0    0    0  501  0.00000000000E+00  0.00000000000E+00 -0.10802020778E+04  0.10802020778E+04  0.50400001928E-02 0.  1.
    10030    2    1    2    0    0  0.00000000000E+00  0.00000000000E+00 -0.40012418532E+03  0.17602799703E+04  0.17142013331E+04 0.  0.
        4    1    3    3  502    0  0.18068400600E+03  0.24004445814E+03 -0.10243548262E+04  0.10675075994E+04  0.12699999809E+01 0.  1.
       -4    1    3    3    0  502 -0.18068400600E+03 -0.24004445814E+03  0.62423064092E+03  0.69277237089E+03  0.12699999809E+01 0. -1.
</event>
<event>
 5   0  0.6834837E-05  0.1695599E+04  0.7818609E-02  0.8763878E-01
        1   -1    0    0  501    0  0.00000000000E+00  0.00000000000E+00  0.10016715571E+04  0.10016715571E+04  0.50400001928E-02 0. -1.
       -1   -1    0    0    0  501  0.00000000000E+00  0.00000000000E+00 -0.71756468429E+03  0.71756468431E+03  0.50400001928E-02 0.  1.
    10030    2    1    2    0    0  0.00000000000E+00  0.00000000000E+00  0.28410687277E+03  0.17192362414E+04  0.16955991680E+04 0.  0.
        5    1    3    3  502    0  0.21119487883E+03 -0.76610564276E+02 -0.68681998120E+03  0.72264530164E+03  0.46999998093E+01 0.  1.
       -5    1    3    3    0  502 -0.21119487883E+03  0.76610564276E+02  0.97092685397E+03  0.99659093974E+03  0.46999998093E+01 0. -1.
</event>
<event>
 5   0  0.1255362E-04  0.1654900E+04  0.7818609E-02  0.8787513E-01
        2   -1    0    0  501    0  0.00000000000E+00  0.00000000000E+00  0.22873868306E+04  0.22873868306E+04  0.25500000920E-02 0.  1.
       -2   -1    0    0    0  501  0.00000000000E+00  0.00000000000E+00 -0.29932576169E+03  0.29932576170E+03  0.25500000920E-02 0. -1.
    10030    2    1    2    0    0  0.00000000000E+00  0.00000000000E+00  0.19880610690E+04  0.25867125923E+04  0.16549003660E+04 0.  0.
        1    1    3    3  502    0 -0.14409199197E+03 -0.39956541290E+02 -0.27803225262E+03  0.31569124294E+03  0.50400001928E-02 0. -1.
       -1    1    3    3    0  502  0.14409199197E+03  0.39956541290E+02  0.22660933216E+04  0.22710213494E+04  0.50400001928E-02 0.  1.
</event>
<event>
 5   0  0.1285639E-04  0.1673783E+04  0.7818609E-02  0.8776460E-01
        2   -1    0    0  501    0  0.00000000000E+00  0.00000000000E+00  0.58444045353E+03  0.58444045353E+03  0.25500000920E-02 0. -1.
       -2   -1    0    0    0  501  0.00000000000E+00  0.00000000000E+00 -0.11983890342E+04  0.11983890342E+04  0.25500000920E-02 0.  1.
    10030    2    1    2    0    0  0.00000000000E+00  0.00000000000E+00 -0.61394858069E+03  0.17828294878E+04  0.16737825793E+04 0.  0.
        4    1    3    3  502    0  0.78237073471E+03 -0.29688109086E+03 -0.31971471027E+03  0.89580213077E+03  0.12699999809E+01 0.  1.
       -4    1    3    3    0  502 -0.78237073471E+03  0.29688109086E+03 -0.29423387043E+03  0.88702735698E+03  0.12699999809E+01 0. -1.
</event>
<event>
 5   0  0.1269175E-04  0.1698795E+04  0.7818609E-02  0.8762052E-01
       -2   -1    0    0    0  501  0.00000000000E+00  0.00000000000E+00  0.11534417695E+04  0.11534417695E+04  0.25500000920E-02 0. -1.
        2   -1    0    0  501    0  0.00000000000E+00  0.00000000000E+00 -0.62549844849E+03  0.62549844850E+03  0.25500000920E-02 0.  1.
    10030    2    1    2    0    0  0.00000000000E+00  0.00000000000E+00  0.52794332104E+03  0.17789402180E+04  0.16987949108E+04 0.  0.
        2    1    3    3  502    0  0.83143321562E+03 -0.16906024537E+03  0.30603483225E+03  0.90195336751E+03  0.25500000920E-02 0.  1.
       -2    1    3    3    0  502 -0.83143321562E+03  0.16906024537E+03  0.22190848878E+03  0.87698685053E+03  0.25500000920E-02 0. -1.
</event>
<event>
 5   0  0.1269175E-04  0.1704328E+04  0.7818609E-02  0.8758900E-01
        2   -1    0    0  501    0  0.00000000000E+00  0.00000000000E+00  0.10596147648E+04  0.10596147648E+04  0.25500000920E-02 0. -1.
       -2   -1    0    0    0  501  0.00000000000E+00  0.00000000000E+00 -0.68532765437E+03  0.68532765437E+03  0.25500000920E-02 0.  1.
    10030    2    1    2    0    0  0.00000000000E+00  0.00000000000E+00  0.37428711039E+03  0.17449424191E+04  0.17043277869E+04 0.  0.
        2    1    3    3  502    0  0.53900415303E+02 -0.48964627099E+03 -0.52478637587E+03  0.71976347905E+03  0.25500000920E-02 0.  1.
       -2    1    3    3    0  502 -0.53900415303E+02  0.48964627099E+03  0.89907348626E+03  0.10251789401E+04  0.25500000920E-02 0. -1.
</event>
<event>
 5   0  0.6539134E-05  0.1700122E+04  0.7818609E-02  0.8761295E-01
        1   -1    0    0  501    0  0.00000000000E+00  0.00000000000E+00  0.15109519406E+04  0.15109519406E+04  0.50400001928E-02 0.  1.
       -1   -1    0    0    0  501  0.00000000000E+00  0.00000000000E+00 -0.47824390675E+03  0.47824390678E+03  0.50400001928E-02 0. -1.
    10030    2    1    2    0    0  0.00000000000E+00  0.00000000000E+00  0.10327080339E+04  0.19891958474E+04  0.17001218298E+04 0.  0.
        2    1    3    3  502    0  0.81654947604E+02  0.69854954279E+03  0.10749929152E+04  0.12846200847E+04  0.25500000920E-02 0.  1.
       -2    1    3    3    0  502 -0.81654947604E+02 -0.69854954279E+03 -0.42284881364E+02  0.70457576271E+03  0.25500000920E-02 0. -1.
</event>
<event>
 5   0  0.6615842E-05  0.1754662E+04  0.7818609E-02  0.8730788E-01
       -1   -1    0    0    0  501  0.00000000000E+00  0.00000000000E+00  0.21627142463E+04  0.21627142463E+04  0.50400001928E-02 0.  1.
        1   -1    0    0  501    0  0.00000000000E+00  0.00000000000E+00 -0.35589997817E+03  0.35589997820E+03  0.50400001928E-02 0. -1.
    10030    2    1    2    0    0  0.00000000000E+00  0.00000000000E+00  0.18068142682E+04  0.25186142245E+04  0.17546623072E+04 0.  0.
        3    1    3    3  502    0  0.21291792042E+03  0.83982274209E+03  0.70516992800E+03  0.11170948557E+04  0.10100000352E+00 0.  1.
       -3    1    3    3    0  502 -0.21291792042E+03 -0.83982274209E+03  0.11016443402E+04  0.14015193689E+04  0.10100000352E+00 0. -1.
</event>
<event>
 5   0  0.1333546E-04  0.1698563E+04  0.7818609E-02  0.8762185E-01
        2   -1    0    0  501    0  0.00000000000E+00  0.00000000000E+00  0.23531236401E+04  0.23531236401E+04  0.25500000920E-02 0.  1.
       -2   -1    0    0    0  501  0.00000000000E+00  0.00000000000E+00 -0.30651971149E+03  0.30651971150E+03  0.25500000920E-02 0. -1.
    10030    2    1    2    0    0  0.00000000000E+00  0.00000000000E+00  0.20466039286E+04  0.26596433516E+04  0.16985626621E+04 0.  0.
        5    1    3    3  502    0 -0.77535758447E+03 -0.17715666915E+03  0.14896241329E+04  0.16886580520E+04  0.46999998093E+01 0.  1.
       -5    1    3    3    0  502  0.77535758447E+03  0.17715666915E+03  0.55697979570E+03  0.97098529960E+03  0.46999998093E+01 0. -1.
</event>
<event>
 5   0  0.1255362E-04  0.1720048E+04  0.7818609E-02  0.8750012E-01
        2   -1    0    0  501    0  0.00000000000E+00  0.00000000000E+00  0.99343203351E+03  0.99343203351E+03  0.25500000920E-02 0. -1.
       -2   -1    0    0    0  501  0.00000000000E+00  0.00000000000E+00 -0.74453142044E+03  0.74453142045E+03  0.25500000920E-02 0.  1.
    10030    2    1    2    0    0  0.00000000000E+00  0.00000000000E+00  0.24890061307E+03  0.17379634540E+04  0.17200480959E+04 0.  0.
        1    1    3    3  502    0 -0.73948235927E+03 -0.43176914949E+03  0.43726983966E+02  0.85742102101E+03  0.50400001928E-02 0. -1.
       -1    1    3    3    0  502  0.73948235927E+03  0.43176914949E+03  0.20517362910E+03  0.88054243295E+03  0.50400001928E-02 0.  1.
</event>
<event>
 5   0  0.6564887E-05  0.1701263E+04  0.7818609E-02  0.8760644E-01
       -1   -1    0    0    0  501  0.00000000000E+00  0.00000000000E+00  0.14936945601E+04  0.14936945601E+04  0.50400001928E-02 0.  1.
        1   -1    0    0  501    0  0.00000000000E+00  0.00000000000E+00 -0.48441907284E+03  0.48441907287E+03  0.50400001928E-02 0. -1.
    10030    2    1    2    0    0  0.00000000000E+00  0.00000000000E+00  0.10092754872E+04  0.19781136330E+04  0.17012632177E+04 0.  0.
        4    1    3    3  502    0 -0.49048290711E+03  0.47789367824E+03  0.10913472723E+04  0.12884084491E+04  0.12699999809E+01 0.  1.
       -4    1    3    3    0  502  0.49048290711E+03 -0.47789367824E+03 -0.82071785104E+02  0.68970518389E+03  0.12699999809E+01 0. -1.
</event>
<event>
 5   0  0.6615842E-05  0.1702459E+04  0.7818609E-02  0.8759963E-01
        1   -1    0    0  501    0  0.00000000000E+00  0.00000000000E+00  0.15684311719E+04  0.15684311719E+04  0.50400001928E-02 0.  1.
       -1   -1    0    0    0  501  0.00000000000E+00  0.00000000000E+00 -0.46198502306E+03  0.46198502308E+03  0.50400001928E-02 0. -1.
    10030    2    1    2    0    0  0.00000000000E+00  0.00000000000E+00  0.11064461488E+04  0.20304161950E+04  0.17024590581E+04 0.  0.
        3    1    3    3  502    0 -0.51178645262E+03 -0.11104719469E+03  0.13535661097E+04  0.14513435417E+04  0.10100000352E+00 0.  1.
       -3    1    3    3    0  502  0.51178645262E+03  0.11104719469E+03 -0.24711996085E+03  0.57907265329E+03  0.10100000352E+00 0. -1.
</event>
<event>
 5   0  0.1333546E-04  0.1699383E+04  0.7818609E-02  0.8761716E-01
        2   -1    0    0  501    0  0.00000000000E+00  0.00000000000E+00  0.63586632406E+03  0.63586632407E+03  0.25500000920E-02 0.  1.
       -2   -1    0    0    0  501  0.00000000000E+00  0.00000000000E+00 -0.11354203923E+04  0.11354203923E+04  0.25500000920E-02 0. -1.
    10030    2    1    2    0    0  0.00000000000E+00  0.00000000000E+00 -0.49955406825E+03  0.17712867164E+04  0.16993829364E+04 0.  0.
        5    1    3    3  502    0 -0.21437399580E+03  0.55040419822E+03 -0.88640043092E+03  0.10651895631E+04  0.46999998093E+01 0. -1.
       -5    1    3    3    0  502  0.21437399580E+03 -0.55040419822E+03  0.38684636268E+03  0.70609715324E+03  0.46999998093E+01 0.  1.
</event>
<event>
 5   0  0.4720875E-05  0.1697577E+04  0.7818609E-02  0.8762748E-01
        4   -1    0    0  501    0  0.00000000000E+00  0.00000000000E+00  0.38780349231E+03  0.38780557183E+03  0.12699999809E+01 0. -1.
       -4   -1    0    0    0  501  0.00000000000E+00  0.00000000000E+00 -0.18577422010E+04  0.18577426351E+04  0.12699999809E+01 0.  1.
    10030    2    1    2    0    0  0.00000000000E+00  0.00000000000E+00 -0.14699387087E+04  0.22455482069E+04  0.16975767854E+04 0.  0.
        4    1    3    3  502    0 -0.13078000086E+03  0.83709056273E+03 -0.80262755535E+03  0.11670632478E+04  0.12699999809E+01 0. -1.
       -4    1    3    3    0  502  0.13078000086E+03 -0.83709056273E+03 -0.66731115336E+03  0.10784849592E+04  0.12699999809E+01 0.  1.
</event>
<event>
 5   0  0.1269175E-04  0.1701071E+04  0.7818609E-02  0.8760754E-01
        2   -1    0    0  501    0  0.00000000000E+00  0.00000000000E+00  0.91054271313E+03  0.91054271313E+03  0.25500000920E-02 0. -1.
       -2   -1    0    0    0  501  0.00000000000E+00  0.00000000000E+00 -0.79448288252E+03  0.79448288253E+03  0.25500000920E-02 0.  1.
    10030    2    1    2    0    0  0.00000000000E+00  0.00000000000E+00  0.11605983060E+03  0.17050255957E+04  0.17010709561E+04 0.  0.
        2    1    3    3  502    0 -0.97174134680E+02 -0.69234976637E+03  0.54353145022E+03  0.88556052805E+03  0.25500000920E-02 0. -1.
       -2    1    3    3    0  502  0.97174134680E+02  0.69234976637E+03 -0.42747161962E+03  0.81946506761E+03  0.25500000920E-02 0.  1.
</event>
<event>
 5   0  0.1285639E-04  0.1699286E+04  0.7818609E-02  0.8761772E-01
       -2   -1    0    0    0  501  0.00000000000E+00  0.00000000000E+00  0.33386124077E+03  0.33386124078E+03  0.25500000920E-02 0. -1.
        2   -1    0    0  501    0  0.00000000000E+00  0.00000000000E+00 -0.21622544490E+04  0.21622544490E+04  0.25500000920E-02 0.  1.
    10030    2    1    2    0    0  0.00000000000E+00  0.00000000000E+00 -0.18283932082E+04  0.24961156898E+04  0.16992856772E+04 0.  0.
        4    1    3    3  502    0  0.52792181387E+02  0.30042076606E+03 -0.20790531088E+04  0.21013098517E+04  0.12699999809E+01 0.  1.
       -4    1    3    3    0  502 -0.52792181387E+02 -0.30042076606E+03  0.25065990054E+03  0.39480583803E+03  0.12699999809E+01 0. -1.
</event>
<event>
 5   0  0.6601906E-05  0.1702151E+04  0.7818609E-02  0.8760138E-01
        1   -1    0    0  501    0  0.00000000000E+00  0.00000000000E+00  0.11357963983E+04  0.11357963983E+04  0.50400001928E-02 0. -1.
       -1   -1    0    0    0  501  0.00000000000E+00  0.00000000000E+00 -0.63772844189E+03  0.63772844191E+03  0.50400001928E-02 0.  1.
    10030    2    1    2    0    0  0.00000000000E+00  0.00000000000E+00  0.49806795639E+03  0.17735248402E+04  0.17021511888E+04 0.  0.
        1    1    3    3  502    0  0.62770922038E+03  0.52931775631E+03  0.48232779062E+03  0.95227950210E+03  0.50400001928E-02 0. -1.
       -1    1    3    3    0  502 -0.62770922038E+03 -0.52931775631E+03  0.15740165771E+02  0.82124533809E+03  0.50400001928E-02 0.  1.
</event>
<event>
 5   0  0.6601906E-05  0.1612222E+04  0.7818609E-02  0.8813074E-01
        1   -1    0    0  501    0  0.00000000000E+00  0.00000000000E+00  0.72213850311E+03  0.72213850313E+03  0.50400001928E-02 0. -1.
       -1   -1    0    0    0  501  0.00000000000E+00  0.00000000000E+00 -0.89984821812E+03  0.89984821814E+03  0.50400001928E-02 0.  1.
    10030    2    1    2    0    0  0.00000000000E+00  0.00000000000E+00 -0.17770971501E+03  0.16219867213E+04  0.16122221253E+04 0.  0.
        1    1    3    3  502    0  0.22618032057E+03  0.64238977344E+03 -0.52273581030E+03  0.85853065515E+03  0.50400001928E-02 0.  1.
       -1    1    3    3    0  502 -0.22618032057E+03 -0.64238977344E+03  0.34502609529E+03  0.76345606612E+03  0.50400001928E-02 0. -1.
</event>
<event>
 5   0  0.6834837E-05  0.1697935E+04  0.7818609E-02  0.8762543E-01
       -1   -1    0    0    0  501  0.00000000000E+00  0.00000000000E+00  0.49830815894E+03  0.49830815896E+03  0.50400001928E-02 0. -1.
        1   -1    0    0  501    0  0.00000000000E+00  0.00000000000E+00 -0.14463863990E+04  0.14463863990E+04  0.50400001928E-02 0.  1.
    10030    2    1    2    0    0  0.00000000000E+00  0.00000000000E+00 -0.94807824008E+03  0.19446945580E+04  0.16979353859E+04 0.  0.
        5    1    3    3  502    0 -0.71939264669E+03  0.30267899037E+03 -0.85662648484E+03  0.11588664185E+04  0.46999998093E+01 0. -1.
       -5    1    3    3    0  502  0.71939264669E+03 -0.30267899037E+03 -0.91451755241E+02  0.78582813952E+03  0.46999998093E+01 0.  1.
</event>
<event>
 5   0  0.1255362E-04  0.1698994E+04  0.7818609E-02  0.8761938E-01
       -2   -1    0    0    0  501  0.00000000000E+00  0.00000000000E+00  0.45931896295E+03  0.45931896296E+03  0.25500000920E-02 0. -1.
        2   -1    0    0  501    0  0.00000000000E+00  0.00000000000E+00 -0.15711199437E+04  0.15711199437E+04  0.25500000920E-02 0.  1.
    10030    2    1    2    0    0  0.00000000000E+00  0.00000000000E+00 -0.11118009808E+04  0.20304389067E+04  0.16989940356E+04 0.  0.
        1    1    3    3  502    0 -0.46591723940E+03  0.57291905332E+03 -0.54065129993E+02  0.74043105954E+03  0.50400001928E-02 0. -1.
       -1    1    3    3    0  502  0.46591723940E+03 -0.57291905332E+03 -0.10577358508E+04  0.12900078471E+04  0.50400001928E-02 0.  1.
</event>
<event>
 5   0  0.1285639E-04  0.1699271E+04  0.7818609E-02  0.8761780E-01
        2   -1    0    0  501    0  0.00000000000E+00  0.00000000000E+00  0.18991661739E+04  0.18991661739E+04  0.25500000920E-02 0. -1.
       -2   -1    0    0    0  501  0.00000000000E+00  0.00000000000E+00 -0.38010410196E+03  0.38010410197E+03  0.25500000920E-02 0.  1.
    10030    2    1    2    0    0  0.00000000000E+00  0.00000000000E+00  0.15190620719E+04  0.22792702758E+04  0.16992714357E+04 0.  0.
        4    1    3    3  502    0  0.29936566254E+03  0.19532876105E+03  0.17933990068E+04  0.18286756780E+04  0.12699999809E+01 0. -1.
       -4    1    3    3    0  502 -0.29936566254E+03 -0.19532876105E+03 -0.27433693493E+03  0.45059459780E+03  0.12699999809E+01 0.  1.
</event>
<event>
 5   0  0.6564887E-05  0.1703025E+04  0.7818609E-02  0.8759641E-01
       -1   -1    0    0    0  501  0.00000000000E+00  0.00000000000E+00  0.51014541707E+03  0.51014541710E+03  0.50400001928E-02 0.  1.
        1   -1    0    0  501    0  0.00000000000E+00  0.00000000000E+00 -0.14213082074E+04  0.14213082074E+04  0.50400001928E-02 0. -1.
    10030    2    1    2    0    0  0.00000000000E+00  0.00000000000E+00 -0.91116279032E+03  0.19314536245E+04  0.17030253883E+04 0.  0.
        4    1    3    3  502    0  0.17286135462E+02  0.85067644072E+03 -0.41757467359E+03  0.94779715034E+03  0.12699999809E+01 0.  1.
       -4    1    3    3    0  502 -0.17286135462E+02 -0.85067644072E+03 -0.49358811673E+03  0.98365647415E+03  0.12699999809E+01 0. -1.
</event>
<event>
 5   0  0.6834837E-05  0.1699853E+04  0.7818609E-02  0.8761448E-01
        1   -1    0    0  501    0  0.00000000000E+00  0.00000000000E+00  0.18254343771E+04  0.18254343772E+04  0.50400001928E-02 0.  1.
       -1   -1    0    0    0  501  0.00000000000E+00  0.00000000000E+00 -0.39572770545E+03  0.39572770548E+03  0.50400001928E-02 0. -1.
    10030    2    1    2    0    0  0.00000000000E+00  0.00000000000E+00  0.14297066717E+04  0.22211620826E+04  0.16998528849E+04 0.  0.
        5    1    3    3  502    0 -0.51588549446E+03  0.45730587223E+03  0.65332177145E+02  0.69250046032E+03  0.46999998093E+01 0. -1.
       -5    1    3    3    0  502  0.51588549446E+03 -0.45730587223E+03  0.13643744945E+04  0.15286616223E+04  0.46999998093E+01 0.  1.
</event>
<event>
 5   0  0.1255362E-04  0.1703007E+04  0.7818609E-02  0.8759651E-01
        2   -1    0    0  501    0  0.00000000000E+00  0.00000000000E+00  0.11017580325E+04  0.11017580325E+04  0.25500000920E-02 0. -1.
       -2   -1    0    0    0  501  0.00000000000E+00  0.00000000000E+00 -0.65809206732E+03  0.65809206733E+03  0.25500000920E-02 0.  1.
    10030    2    1    2    0    0  0.00000000000E+00  0.00000000000E+00  0.44366596514E+03  0.17598500998E+04  0.17030070126E+04 0.  0.
        1    1    3    3  502    0 -0.51497504014E+03 -0.58624353144E+03 -0.13039200531E+03  0.79112757833E+03  0.50400001928E-02 0.  1.
       -1    1    3    3    0  502  0.51497504014E+03  0.58624353144E+03  0.57405797046E+03  0.96872252146E+03  0.50400001928E-02 0. -1.
</event>
<event>
 5   0  0.6615842E-05  0.1699873E+04  0.7818609E-02  0.8761437E-01
        1   -1    0    0  501    0  0.00000000000E+00  0.00000000000E+00  0.82464525753E+03  0.82464525754E+03  0.50400001928E-02 0. -1.
       -1   -1    0    0    0  501  0.00000000000E+00  0.00000000000E+00 -0.87600377355E+03  0.87600377356E+03  0.50400001928E-02 0.  1.
    10030    2    1    2    0    0  0.00000000000E+00  0.00000000000E+00 -0.51358516019E+02  0.17006490311E+04  0.16998733570E+04 0.  0.
        3    1    3    3  502    0 -0.55717444171E+03  0.50034110576E+03 -0.42786738278E+03  0.86247034039E+03  0.10100000352E+00 0.  1.
       -3    1    3    3    0  502  0.55717444171E+03 -0.50034110576E+03  0.37650886677E+03  0.83817869071E+03  0.10100000352E+00 0. -1.
</event>
<event>
 5   0  0.1269175E-04  0.1685819E+04  0.7818609E-02  0.8769494E-01
        2   -1    0    0  501    0  0.00000000000E+00  0.00000000000E+00  0.15453935133E+04  0.15453935133E+04  0.25500000920E-02 0.  1.
       -2   -1    0    0    0  501  0.00000000000E+00  0.00000000000E+00 -0.45975138713E+03  0.45975138714E+03  0.25500000920E-02 0. -1.
    10030    2    1    2    0    0  0.00000000000E+00  0.00000000000E+00  0.10856421262E+04  0.20051449004E+04  0.16858194582E+04 0.  0.
        2    1    3    3  502    0 -0.27565395851E+03 -0.46457863648E+03 -0.22679651104E+03  0.58587974171E+03  0.25500000920E-02 0. -1.
       -2    1    3    3    0  502  0.27565395851E+03  0.46457863648E+03  0.13124386372E+04  0.14192651587E+04  0.25500000920E-02 0.  1.
</event>
<event>
 5   0  0.1269175E-04  0.1700500E+04  0.7818609E-02  0.8761079E-01
       -2   -1    0    0    0  501  0.00000000000E+00  0.00000000000E+00  0.67923557559E+03  0.67923557559E+03  0.25500000920E-02 0.  1.
        2   -1    0    0  501    0  0.00000000000E+00  0.00000000000E+00 -0.10643221334E+04  0.10643221334E+04  0.25500000920E-02 0. -1.
    10030    2    1    2    0    0  0.00000000000E+00  0.00000000000E+00 -0.38508655785E+03  0.17435577090E+04  0.17005004639E+04 0.  0.
        2    1    3    3  502    0  0.39458122731E+03  0.75089850793E+03 -0.13291102577E+03  0.85860832452E+03  0.25500000920E-02 0.  1.
       -2    1    3    3    0  502 -0.39458122731E+03 -0.75089850793E+03 -0.25217553208E+03  0.88494938451E+03  0.25500000920E-02 0. -1.
</event>
<event>
 5   0  0.1285639E-04  0.1690679E+04  0.7818609E-02  0.8766698E-01
       -2   -1    0    0    0  501  0.00000000000E+00  0.00000000000E+00  0.91986888726E+03  0.91986888726E+03  0.25500000920E-02 0. -1.
        2   -1    0    0  501    0  0.00000000000E+00  0.00000000000E+00 -0.77684861634E+03  0.77684861634E+03  0.25500000920E-02 0.  1.
    10030    2    1    2    0    0  0.00000000000E+00  0.00000000000E+00  0.14302027092E+03  0.16967175036E+04  0.16906790024E+04 0.  0.
        4    1    3    3  502    0  0.53940642207E+03  0.39797313570E+03 -0.44535883527E+03  0.80479066220E+03  0.12699999809E+01 0.  1.
       -4    1    3    3    0  502 -0.53940642207E+03 -0.39797313570E+03  0.58837910619E+03  0.89192684140E+03  0.12699999809E+01 0. -1.
</event>
<event>
 5   0  0.1333546E-04  0.1691141E+04  0.7818609E-02  0.8766433E-01
        2   -1    0    0  501    0  0.00000000000E+00  0.00000000000E+00  0.17748336809E+04  0.17748336809E+04  0.25500000920E-02 0.  1.
       -2   -1    0    0    0  501  0.00000000000E+00  0.00000000000E+00 -0.40284889186E+03  0.40284889187E+03  0.25500000920E-02 0. -1.
    10030    2    1    2    0    0  0.00000000000E+00  0.00000000000E+00  0.13719847890E+04  0.21776825727E+04  0.16911413679E+04 0.  0.
        5    1    3    3  502    0 -0.26047273294E+03 -0.66428024529E+03  0.10174916602E+03  0.72075604172E+03  0.46999998093E+01 0. -1.
       -5    1    3    3    0  502  0.26047273294E+03  0.66428024529E+03  0.12702356230E+04  0.14569265310E+04  0.46999998093E+01 0.  1.
</event>
<event>
 5   0  0.1255362E-04  0.1689718E+04  0.7818609E-02  0.8767250E-01
       -2   -1    0    0    0  501  0.00000000000E+00  0.00000000000E+00  0.78627897108E+03  0.78627897108E+03  0.25500000920E-02 0.  1.
        2   -1    0    0  501    0  0.00000000000E+00  0.00000000000E+00 -0.90780389342E+03  0.90780389342E+03  0.25500000920E-02 0. -1.
    10030    2    1    2    0    0  0.00000000000E+00  0.00000000000E+00 -0.12152492234E+03  0.16940828645E+04  0.16897184514E+04 0.  0.
        1    1    3    3  502    0 -0.50055920178E+03 -0.53739749916E+03 -0.47949122164E+03  0.87707891221E+03  0.50400001928E-02 0. -1.
       -1    1    3    3    0  502  0.50055920178E+03  0.53739749916E+03  0.35796629931E+03  0.81700395229E+03  0.50400001928E-02 0.  1.
</event>
<event>
 5   0  0.1333546E-04  0.1702373E+04  0.7818609E-02  0.8760012E-01
        2   -1    0    0  501    0  0.00000000000E+00  0.00000000000E+00  0.91561158045E+03  0.91561158045E+03  0.25500000920E-02 0.  1.
       -2   -1    0    0    0  501  0.00000000000E+00  0.00000000000E+00 -0.79129410416E+03  0.79129410416E+03  0.25500000920E-02 0. -1.
    10030    2    1    2    0    0  0.00000000000E+00  0.00000000000E+00  0.12431747629E+03  0.17069056846E+04  0.17023725154E+04 0.  0.
        5    1    3    3  502    0 -0.35623226071E+03  0.43760058424E+03  0.70111563126E+03  0.89998939621E+03  0.46999998093E+01 0.  1.
       -5    1    3    3    0  502  0.35623226071E+03 -0.43760058424E+03 -0.57679815498E+03  0.80691628840E+03  0.46999998093E+01 0. -1.
</event>
<event>
 5   0  0.6564887E-05  0.1702334E+04  0.7818609E-02  0.8760034E-01
       -1   -1    0    0    0  501  0.00000000000E+00  0.00000000000E+00  0.58307751529E+03  0.58307751531E+03  0.50400001928E-02 0.  1.
        1   -1    0    0  501    0  0.00000000000E+00  0.00000000000E+00 -0.12425203600E+04  0.12425203600E+04  0.50400001928E-02 0. -1.
    10030    2    1    2    0    0  0.00000000000E+00  0.00000000000E+00 -0.65944284475E+03  0.18255978754E+04  0.17023344962E+04 0.  0.
        4    1    3    3  502    0 -0.21720256334E+03 -0.82029245655E+03 -0.25836471918E+03  0.88702345449E+03  0.12699999809E+01 0.  1.
       -4    1    3    3    0  502  0.21720256334E+03  0.82029245655E+03 -0.40107812557E+03  0.93857442087E+03  0.12699999809E+01 0. -1.
</event>
<event>
 5   0  0.6834837E-05  0.1702352E+04  0.7818609E-02  0.8760024E-01
        1   -1    0    0  501    0  0.00000000000E+00  0.00000000000E+00  0.85003623499E+03  0.85003623500E+03  0.50400001928E-02 0. -1.
       -1   -1    0    0    0  501  0.00000000000E+00  0.00000000000E+00 -0.85231683038E+03  0.85231683040E+03  0.50400001928E-02 0.  1.
    10030    2    1    2    0    0  0.00000000000E+00  0.00000000000E+00 -0.22805953973E+01  0.17023530654E+04  0.17023515378E+04 0.  0.
        5    1    3    3  502    0  0.47552053466E+03 -0.39779830925E+03 -0.58433446454E+03  0.85195782182E+03  0.46999998093E+01 0.  1.
       -5    1    3    3    0  502 -0.47552053466E+03  0.39779830925E+03  0.58205386914E+03  0.85039524358E+03  0.46999998093E+01 0. -1.
</event>
<event>
 5   0  0.1285639E-04  0.1713748E+04  0.7818609E-02  0.8753562E-01
       -2   -1    0    0    0  501  0.00000000000E+00  0.00000000000E+00  0.84716953803E+03  0.84716953804E+03  0.25500000920E-02 0.  1.
        2   -1    0    0  501    0  0.00000000000E+00  0.00000000000E+00 -0.86669012741E+03  0.86669012742E+03  0.25500000920E-02 0. -1.
    10030    2    1    2    0    0  0.00000000000E+00  0.00000000000E+00 -0.19520589380E+02  0.17138596655E+04  0.17137484936E+04 0.  0.
        4    1    3    3  502    0  0.64654822100E+03  0.32775689317E+02  0.55164321537E+03  0.85053553592E+03  0.12699999809E+01 0.  1.
       -4    1    3    3    0  502 -0.64654822100E+03 -0.32775689317E+02 -0.57116380476E+03  0.86332412954E+03  0.12699999809E+01 0. -1.
</event>
<event>
 5   0  0.1269175E-04  0.1686203E+04  0.7818609E-02  0.8769273E-01
        2   -1    0    0  501    0  0.00000000000E+00  0.00000000000E+00  0.11035512537E+04  0.11035512537E+04  0.25500000920E-02 0. -1.
       -2   -1    0    0    0  501  0.00000000000E+00  0.00000000000E+00 -0.64412080483E+03  0.64412080483E+03  0.25500000920E-02 0.  1.
    10030    2    1    2    0    0  0.00000000000E+00  0.00000000000E+00  0.45943044889E+03  0.17476720586E+04  0.16862032164E+04 0.  0.
        2    1    3    3  502    0  0.22319698263E+03 -0.41431907909E+03  0.95474655998E+03  0.10644332699E+04  0.25500000920E-02 0. -1.
       -2    1    3    3    0  502 -0.22319698263E+03  0.41431907909E+03 -0.49531611109E+03  0.68323878862E+03  0.25500000920E-02 0.  1.
</event>
<event>
 5   0  0.6834837E-05  0.1671548E+04  0.7818609E-02  0.8777760E-01
        1   -1    0    0  501    0  0.00000000000E+00  0.00000000000E+00  0.14582030015E+04  0.14582030015E+04  0.50400001928E-02 0. -1.
       -1   -1    0    0    0  501  0.00000000000E+00  0.00000000000E+00 -0.47902687723E+03  0.47902687726E+03  0.50400001928E-02 0.  1.
    10030    2    1    2    0    0  0.00000000000E+00  0.00000000000E+00  0.97917612426E+03  0.19372298788E+04  0.16715483005E+04 0.  0.
        5    1    3    3  502    0  0.26083841249E+03  0.75529760450E+03  0.77343502582E+03  0.11120858681E+04  0.46999998093E+01 0.  1.
       -5    1    3    3    0  502 -0.26083841249E+03 -0.75529760450E+03  0.20574109844E+03  0.82514401069E+03  0.46999998093E+01 0. -1.
</event>
<event>
 5   0  0.6564887E-05  0.1699538E+04  0.7818609E-02  0.8761628E-01
        1   -1    0    0  501    0  0.00000000000E+00  0.00000000000E+00  0.10484195172E+04  0.10484195173E+04  0.50400001928E-02 0.  1.
       -1   -1    0    0    0  501  0.00000000000E+00  0.00000000000E+00 -0.68875773270E+03  0.68875773272E+03  0.50400001928E-02 0. -1.
    10030    2    1    2    0    0  0.00000000000E+00  0.00000000000E+00  0.35966178455E+03  0.17371772500E+04  0.16995376426E+04 0.  0.
        4    1    3    3  502    0 -0.13463615753E+03 -0.92488907706E+02  0.10322207819E+04  0.10450657627E+04  0.12699999809E+01 0.  1.
       -4    1    3    3    0  502  0.13463615753E+03  0.92488907706E+02 -0.67255899735E+03  0.69211148724E+03  0.12699999809E+01 0. -1.
</event>
<event>
 5   0  0.1333546E-04  0.1697762E+04  0.7818609E-02  0.8762642E-01
        2   -1    0    0  501    0  0.00000000000E+00  0.00000000000E+00  0.16641573870E+04  0.16641573870E+04  0.25500000920E-02 0. -1.
       -2   -1    0    0    0  501  0.00000000000E+00  0.00000000000E+00 -0.43301134221E+03  0.43301134222E+03  0.25500000920E-02 0.  1.
    10030    2    1    2    0    0  0.00000000000E+00  0.00000000000E+00  0.12311460447E+04  0.20971687292E+04  0.16977620844E+04 0.  0.
        5    1    3    3  502    0  0.66073335257E+03 -0.53261457739E+03  0.59313069872E+03  0.10354095649E+04  0.46999998093E+01 0. -1.
       -5    1    3    3    0  502 -0.66073335257E+03  0.53261457739E+03  0.63801534602E+03  0.10617591643E+04  0.46999998093E+01 0.  1.
</event>
<event>
 5   0  0.6539134E-05  0.1709636E+04  0.7818609E-02  0.8755888E-01
       -1   -1    0    0    0  501  0.00000000000E+00  0.00000000000E+00  0.54095130448E+03  0.54095130450E+03  0.50400001928E-02 0. -1.
        1   -1    0    0  501    0  0.00000000000E+00  0.00000000000E+00 -0.13507933232E+04  0.13507933232E+04  0.50400001928E-02 0.  1.
    10030    2    1    2    0    0  0.00000000000E+00  0.00000000000E+00 -0.80984201876E+03  0.18917446277E+04  0.17096355288E+04 0.  0.
        2    1    3    3  502    0  0.76756539299E+03  0.30382086183E+03 -0.65048269205E+03  0.10509954716E+04  0.25500000920E-02 0.  1.
       -2    1    3    3    0  502 -0.76756539299E+03 -0.30382086183E+03 -0.15935932671E+03  0.84074915617E+03  0.25500000920E-02 0. -1.
</event>
<event>
 5   0  0.6615842E-05  0.1762172E+04  0.7818609E-02  0.8726679E-01
        1   -1    0    0  501    0  0.00000000000E+00  0.00000000000E+00  0.14340403136E+04  0.14340403137E+04  0.50400001928E-02 0.  1.
       -1   -1    0    0    0  501  0.00000000000E+00  0.00000000000E+00 -0.54134608615E+03  0.54134608618E+03  0.50400001928E-02 0. -1.
    10030    2    1    2    0    0  0.00000000000E+00  0.00000000000E+00  0.89269422749E+03  0.19753863998E+04  0.17621715140E+04 0.  0.
        3    1    3    3  502    0  0.20485179983E+03  0.83598599915E+02  0.14023920945E+04  0.14197382093E+04  0.10100000352E+00 0.  1.
       -3    1    3    3    0  502 -0.20485179983E+03 -0.83598599915E+02 -0.50969786705E+03  0.55564819057E+03  0.10100000352E+00 0. -1.
</event>
<event>
 5   0  0.6601906E-05  0.1710598E+04  0.7818609E-02  0.8755343E-01
        1   -1    0    0  501    0  0.00000000000E+00  0.00000000000E+00  0.13810260879E+04  0.13810260879E+04  0.50400001928E-02 0.  1.
       -1   -1    0    0    0  501  0.00000000000E+00  0.00000000000E+00 -0.52970518576E+03  0.52970518578E+03  0.50400001928E-02 0. -1.
    10030    2    1    2    0    0  0.00000000000E+00  0.00000000000E+00  0.85132090210E+03  0.19107312736E+04  0.17105983520E+04 0.  0.
        1    1    3    3  502    0 -0.75477014200E+03 -0.18740873237E+03  0.28008858549E+02  0.77819309712E+03  0.50400001928E-02 0.  1.
       -1    1    3    3    0  502  0.75477014200E+03  0.18740873237E+03  0.82331204355E+03  0.11325381765E+04  0.50400001928E-02 0. -1.
</event>
<event>
 5   0  0.1255362E-04  0.1696039E+04  0.7818609E-02  0.8763627E-01
       -2   -1    0    0    0  501  0.00000000000E+00  0.00000000000E+00  0.88882599589E+03  0.88882599589E+03  0.25500000920E-02 0.  1.
        2   -1    0    0  501    0  0.00000000000E+00  0.00000000000E+00 -0.80908597767E+03  0.80908597768E+03  0.25500000920E-02 0. -1.
    10030    2    1    2    0    0  0.00000000000E+00  0.00000000000E+00  0.79740018215E+02  0.16979119736E+04  0.16960385018E+04 0.  0.
        1    1    3    3  502    0 -0.30029022300E+03 -0.10131459679E+03  0.82731231591E+03  0.88593709350E+03  0.50400001928E-02 0.  1.
       -1    1    3    3    0  502  0.30029022300E+03  0.10131459679E+03 -0.74757229770E+03  0.81197488007E+03  0.50400001928E-02 0. -1.
</event>
<event>
 5   0  0.1393870E-04  0.1705173E+04  0.7818609E-02  0.8758420E-01
        2   -1    0    0  501    0  0.00000000000E+00  0.00000000000E+00  0.15987590702E+04  0.15987590702E+04  0.25500000920E-02 0.  1.
       -2   -1    0    0    0  501  0.00000000000E+00  0.00000000000E+00 -0.45466740174E+03  0.45466740175E+03  0.25500000920E-02 0. -1.
    10030    2    1    2    0    0  0.00000000000E+00  0.00000000000E+00  0.11440916685E+04  0.20534264720E+04  0.17051728739E+04 0.  0.
        3    1    3    3  502    0  0.27085588141E+03  0.75616319779E+03  0.91637649057E+03  0.12185612717E+04  0.10100000352E+00 0.  1.
       -3    1    3    3    0  502 -0.27085588141E+03 -0.75616319779E+03  0.22771517790E+03  0.83486520027E+03  0.10100000352E+00 0. -1.
</event>
<event>
 5   0  0.1333546E-04  0.1692739E+04  0.7818609E-02  0.8765516E-01
        2   -1    0    0  501    0  0.00000000000E+00  0.00000000000E+00  0.16634955155E+04  0.16634955155E+04  0.25500000920E-02 0.  1.
       -2   -1    0    0    0  501  0.00000000000E+00  0.00000000000E+00 -0.43062420187E+03  0.43062420188E+03  0.25500000920E-02 0. -1.
    10030    2    1    2    0    0  0.00000000000E+00  0.00000000000E+00  0.12328713136E+04  0.20941197174E+04  0.16927391160E+04 0.  0.
        5    1    3    3  502    0  0.34310633988E+03 -0.55870590944E+03 -0.45677416882E+02  0.65725396166E+03  0.46999998093E+01 0. -1.
       -5    1    3    3    0  502 -0.34310633988E+03  0.55870590944E+03  0.12785487305E+04  0.14368657557E+04  0.46999998093E+01 0.  1.
</event>
<event>
 5   0  0.1285639E-04  0.1696594E+04  0.7818609E-02  0.8763309E-01
       -2   -1    0    0    0  501  0.00000000000E+00  0.00000000000E+00  0.84092063474E+03  0.84092063475E+03  0.25500000920E-02 0.  1.
        2   -1    0    0  501    0  0.00000000000E+00  0.00000000000E+00 -0.85573791124E+03  0.85573791125E+03  0.25500000920E-02 0. -1.
    10030    2    1    2    0    0  0.00000000000E+00  0.00000000000E+00 -0.14817276498E+02  0.16966585460E+04  0.16965938436E+04 0.  0.
        4    1    3    3  502    0 -0.43424546852E+03  0.41934151632E+03  0.58859195938E+03  0.84312427422E+03  0.12699999809E+01 0.  1.
       -4    1    3    3    0  502  0.43424546852E+03 -0.41934151632E+03 -0.60340923588E+03  0.85353427177E+03  0.12699999809E+01 0. -1.
</event>
<event>
 5   0  0.1255362E-04  0.1693251E+04  0.7818609E-02  0.8765223E-01
        2   -1    0    0  501    0  0.00000000000E+00  0.00000000000E+00  0.68598608338E+03  0.68598608338E+03  0.25500000920E-02 0.  1.
       -2   -1    0    0    0  501  0.00000000000E+00  0.00000000000E+00 -0.10448824579E+04  0.10448824579E+04  0.25500000920E-02 0. -1.
    10030    2    1    2    0    0  0.00000000000E+00  0.00000000000E+00 -0.35889637456E+03  0.17308685413E+04  0.16932511035E+04 0.  0.
        1    1    3    3  502    0  0.19348165431E+03  0.30141920206E+03  0.60472291936E+03  0.70283603718E+03  0.50400001928E-02 0.  1.
       -1    1    3    3    0  502 -0.19348165431E+03 -0.30141920206E+03 -0.96361929393E+03  0.10280325041E+04  0.50400001928E-02 0. -1.
</event>
<event>
 5   0  0.6539134E-05  0.1710616E+04  0.7818609E-02  0.8755333E-01
        1   -1    0    0  501    0  0.00000000000E+00  0.00000000000E+00  0.11334447887E+04  0.11334447887E+04  0.50400001928E-02 0. -1.
       -1   -1    0    0    0  501  0.00000000000E+00  0.00000000000E+00 -0.64542343741E+03  0.64542343743E+03  0.50400001928E-02 0.  1.
    10030    2    1    2    0    0  0.00000000000E+00  0.00000000000E+00  0.48802135132E+03  0.17788682262E+04  0.17106160664E+04 0.  0.
        2    1    3    3  502    0 -0.30486484911E+03  0.14812532684E+03  0.10606249892E+04  0.11134671330E+04  0.25500000920E-02 0. -1.
       -2    1    3    3    0  502  0.30486484911E+03 -0.14812532684E+03 -0.57260363785E+03  0.66540109315E+03  0.25500000920E-02 0.  1.
</event>
<event>
 5   0  0.6615842E-05  0.1695193E+04  0.7818609E-02  0.8764111E-01
        1   -1    0    0  501    0  0.00000000000E+00  0.00000000000E+00  0.10178569065E+04  0.10178569065E+04  0.50400001928E-02 0.  1.
       -1   -1    0    0    0  501  0.00000000000E+00  0.00000000000E+00 -0.70581638393E+03  0.70581638395E+03  0.50400001928E-02 0. -1.
    10030    2    1    2    0    0  0.00000000000E+00  0.00000000000E+00  0.31204052258E+03  0.17236732905E+04  0.16951933001E+04 0.  0.
        3    1    3    3  502    0  0.19651065391E+03  0.69132495296E+03 -0.30083151733E+03  0.77913172167E+03  0.10100000352E+00 0. -1.
       -3    1    3    3    0  502 -0.19651065391E+03 -0.69132495296E+03  0.61287203991E+03  0.94454156880E+03  0.10100000352E+00 0.  1.
</event>
<event>
 5   0  0.1393870E-04  0.1699419E+04  0.7818609E-02  0.8761696E-01
       -2   -1    0    0    0  501  0.00000000000E+00  0.00000000000E+00  0.44023397663E+03  0.44023397664E+03  0.25500000920E-02 0. -1.
        2   -1    0    0  501    0  0.00000000000E+00  0.00000000000E+00 -0.16400505860E+04  0.16400505860E+04  0.25500000920E-02 0.  1.
    10030    2    1    2    0    0  0.00000000000E+00  0.00000000000E+00 -0.11998166093E+04  0.20802845626E+04  0.16994187140E+04 0.  0.
        3    1    3    3  502    0 -0.46907186548E+03  0.64990991474E+01 -0.14671621453E+04  0.15403361400E+04  0.10100000352E+00 0.  1.
       -3    1    3    3    0  502  0.46907186548E+03 -0.64990991474E+01  0.26734553598E+03  0.53994842262E+03  0.10100000352E+00 0. -1.
</event>
<event>
 5   0  0.1393870E-04  0.1704245E+04  0.7818609E-02  0.8758947E-01
       -2   -1    0    0    0  501  0.00000000000E+00  0.00000000000E+00  0.11061087935E+04  0.11061087935E+04  0.25500000920E-02 0. -1.
        2   -1    0    0  501    0  0.00000000000E+00  0.00000000000E+00 -0.65645666035E+03  0.65645666036E+03  0.25500000920E-02 0.  1.
    10030    2    1    2    0    0  0.00000000000E+00  0.00000000000E+00  0.44965213317E+03  0.17625654539E+04  0.17042446827E+04 0.  0.
        3    1    3    3  502    0 -0.19687701639E+03 -0.57695111507E+03 -0.39093008816E+03  0.72419575585E+03  0.10100000352E+00 0.  1.
       -3    1    3    3    0  502  0.19687701639E+03  0.57695111507E+03  0.84058222133E+03  0.10383696980E+04  0.10100000352E+00 0. -1.
</event>
<event>
 5   0  0.6564887E-05  0.1708014E+04  0.7818609E-02  0.8756807E-01
        1   -1    0    0  501    0  0.00000000000E+00  0.00000000000E+00  0.66439194668E+03  0.66439194670E+03  0.50400001928E-02 0.  1.
       -1   -1    0    0    0  501  0.00000000000E+00  0.00000000000E+00 -0.10977371373E+04  0.10977371373E+04  0.50400001928E-02 0. -1.
    10030    2    1    2    0    0  0.00000000000E+00  0.00000000000E+00 -0.43334519065E+03  0.17621290841E+04  0.17080137162E+04 0.  0.
        4    1    3    3  502    0 -0.21935248380E+03 -0.60840942009E+03  0.35871496346E+03  0.73956444784E+03  0.12699999809E+01 0.  1.
       -4    1    3    3    0  502  0.21935248380E+03  0.60840942009E+03 -0.79206015411E+03  0.10225646362E+04  0.12699999809E+01 0. -1.
</event>
<event>
 5   0  0.6601906E-05  0.1698591E+04  0.7818609E-02  0.8762169E-01
       -1   -1    0    0    0  501  0.00000000000E+00  0.00000000000E+00  0.16296747188E+04  0.16296747188E+04  0.50400001928E-02 0. -1.
        1   -1    0    0  501    0  0.00000000000E+00  0.00000000000E+00 -0.44260519436E+03  0.44260519439E+03  0.50400001928E-02 0.  1.
    10030    2    1    2    0    0  0.00000000000E+00  0.00000000000E+00  0.11870695244E+04  0.20722799132E+04  0.16985905871E+04 0.  0.
        1    1    3    3  502    0  0.10310903624E+03  0.55058067484E+03 -0.18529139977E+03  0.59000292857E+03  0.50400001928E-02 0.  1.
       -1    1    3    3    0  502 -0.10310903624E+03 -0.55058067484E+03  0.13723609242E+04  0.14822769846E+04  0.50400001928E-02 0. -1.
</event>
<event>
 5   0  0.1333546E-04  0.1688392E+04  0.7818609E-02  0.8768013E-01
       -2   -1    0    0    0  501  0.00000000000E+00  0.00000000000E+00  0.12694721242E+04  0.12694721242E+04  0.25500000920E-02 0.  1.
        2   -1    0    0  501    0  0.00000000000E+00  0.00000000000E+00 -0.56138817599E+03  0.56138817600E+03  0.25500000920E-02 0. -1.
    10030    2    1    2    0    0  0.00000000000E+00  0.00000000000E+00  0.70808394823E+03  0.18308603002E+04  0.16883917085E+04 0.  0.
        5    1    3    3  502    0  0.47607473136E+03  0.33374936582E+03 -0.30965671849E+03  0.65874514217E+03  0.46999998093E+01 0. -1.
       -5    1    3    3    0  502 -0.47607473136E+03 -0.33374936582E+03  0.10177406667E+04  0.11721151580E+04  0.46999998093E+01 0.  1.
</event>
<event>
 5   0  0.6564887E-05  0.1701809E+04  0.7818609E-02  0.8760333E-01
       -1   -1    0    0    0  501  0.00000000000E+00  0.00000000000E+00  0.55930301543E+03  0.55930301545E+03  0.50400001928E-02 0. -1.
        1   -1    0    0  501    0  0.00000000000E+00  0.00000000000E+00 -0.12945367094E+04  0.12945367095E+04  0.50400001928E-02 0.  1.
    10030    2    1    2    0    0  0.00000000000E+00  0.00000000000E+00 -0.73523369401E+03  0.18538397249E+04  0.17018087850E+04 0.  0.
        4    1    3    3  502    0 -0.80627723900E+03 -0.15498882107E+03 -0.12419947870E+03  0.83038042137E+03  0.12699999809E+01 0. -1.
       -4    1    3    3    0  502  0.80627723900E+03  0.15498882107E+03 -0.61103421532E+03  0.10234593035E+04  0.12699999809E+01 0.  1.
</event>
<event>
 5   0  0.6601906E-05  0.1703781E+04  0.7818609E-02  0.8759211E-01
        1   -1    0    0  501    0  0.00000000000E+00  0.00000000000E+00  0.15632339414E+04  0.15632339414E+04  0.50400001928E-02 0. -1.
       -1   -1    0    0    0  501  0.00000000000E+00  0.00000000000E+00 -0.46424086121E+03  0.46424086124E+03  0.50400001928E-02 0.  1.
    10030    2    1    2    0    0  0.00000000000E+00  0.00000000000E+00  0.10989930802E+04  0.20274748027E+04  0.17037805860E+04 0.  0.
        1    1    3    3  502    0  0.59970602065E+02  0.60786994598E+03 -0.15713338190E+03  0.63070852545E+03  0.50400001928E-02 0.  1.
       -1    1    3    3    0  502 -0.59970602065E+02 -0.60786994598E+03  0.12561264621E+04  0.13967662772E+04  0.50400001928E-02 0. -1.
</event>
<event>
 5   0  0.1285639E-04  0.1701719E+04  0.7818609E-02  0.8760384E-01
       -2   -1    0    0    0  501  0.00000000000E+00  0.00000000000E+00  0.29900105223E+03  0.29900105225E+03  0.25500000920E-02 0. -1.
        2   -1    0    0  501    0  0.00000000000E+00  0.00000000000E+00 -0.24212694519E+04  0.24212694519E+04  0.25500000920E-02 0.  1.
    10030    2    1    2    0    0  0.00000000000E+00  0.00000000000E+00 -0.21222683997E+04  0.27202705042E+04  0.17017192646E+04 0.  0.
        4    1    3    3  502    0 -0.12087963287E+03  0.32142568788E+03 -0.23055706493E+04  0.23310049314E+04  0.12699999809E+01 0.  1.
       -4    1    3    3    0  502  0.12087963287E+03 -0.32142568788E+03  0.18330224966E+03  0.38926557271E+03  0.12699999809E+01 0. -1.
</event>
<event>
 5   0  0.6615842E-05  0.1714979E+04  0.7818609E-02  0.8752867E-01
       -1   -1    0    0    0  501  0.00000000000E+00  0.00000000000E+00  0.35988059494E+03  0.35988059497E+03  0.50400001928E-02 0.  1.
        1   -1    0    0  501    0  0.00000000000E+00  0.00000000000E+00 -0.20431454463E+04  0.20431454463E+04  0.50400001928E-02 0. -1.
    10030    2    1    2    0    0  0.00000000000E+00  0.00000000000E+00 -0.16832648514E+04  0.24030260413E+04  0.17149791822E+04 0.  0.
        3    1    3    3  502    0  0.19970675464E+03 -0.76738443918E+03 -0.38430324953E+03  0.88116437918E+03  0.10100000352E+00 0.  1.
       -3    1    3    3    0  502 -0.19970675464E+03  0.76738443918E+03 -0.12989616019E+04  0.15218616621E+04  0.10100000352E+00 0. -1.
</event>
<event>
 5   0  0.6601906E-05  0.1700925E+04  0.7818609E-02  0.8760837E-01
        1   -1    0    0  501    0  0.00000000000E+00  0.00000000000E+00  0.18098976447E+04  0.18098976447E+04  0.50400001928E-02 0.  1.
       -1   -1    0    0    0  501  0.00000000000E+00  0.00000000000E+00 -0.39962841947E+03  0.39962841950E+03  0.50400001928E-02 0. -1.
    10030    2    1    2    0    0  0.00000000000E+00  0.00000000000E+00  0.14102692252E+04  0.22095260642E+04  0.17009250838E+04 0.  0.
        1    1    3    3  502    0 -0.26217709849E+03 -0.76456543432E+03  0.36147374594E+03  0.88541538464E+03  0.50400001928E-02 0.  1.
       -1    1    3    3    0  502  0.26217709849E+03  0.76456543432E+03  0.10487954793E+04  0.13241106796E+04  0.50400001928E-02 0. -1.
</event>
<event>
 5   0  0.6601906E-05  0.1700747E+04  0.7818609E-02  0.8760938E-01
        1   -1    0    0  501    0  0.00000000000E+00  0.00000000000E+00  0.14884296280E+04  0.14884296280E+04  0.50400001928E-02 0. -1.
       -1   -1    0    0    0  501  0.00000000000E+00  0.00000000000E+00 -0.48583760510E+03  0.48583760512E+03  0.50400001928E-02 0.  1.
    10030    2    1    2    0    0  0.00000000000E+00  0.00000000000E+00  0.10025920229E+04  0.19742672331E+04  0.17007469957E+04 0.  0.
        1    1    3    3  502    0 -0.49226784491E+03  0.36221500391E+03 -0.18507154693E+03  0.63857561628E+03  0.50400001928E-02 0.  1.
       -1    1    3    3    0  502  0.49226784491E+03 -0.36221500391E+03  0.11876635698E+04  0.13356916168E+04  0.50400001928E-02 0. -1.
</event>
<event>
 5   0  0.6834837E-05  0.1703660E+04  0.7818609E-02  0.8759279E-01
       -1   -1    0    0    0  501  0.00000000000E+00  0.00000000000E+00  0.40722549693E+03  0.40722549696E+03  0.50400001928E-02 0. -1.
        1   -1    0    0  501    0  0.00000000000E+00  0.00000000000E+00 -0.17818500400E+04  0.17818500400E+04  0.50400001928E-02 0.  1.
    10030    2    1    2    0    0  0.00000000000E+00  0.00000000000E+00 -0.13746245431E+04  0.21890755370E+04  0.17036604921E+04 0.  0.
        5    1    3    3  502    0 -0.48498794793E+03 -0.17182222641E+03  0.18497703781E+03  0.54678586452E+03  0.46999998093E+01 0. -1.
       -5    1    3    3    0  502  0.48498794793E+03  0.17182222641E+03 -0.15596015809E+04  0.16422896725E+04  0.46999998093E+01 0.  1.
</event>
<event>
 5   0  0.6834837E-05  0.1703617E+04  0.7818609E-02  0.8759304E-01
        1   -1    0    0  501    0  0.00000000000E+00  0.00000000000E+00  0.94434442107E+03  0.94434442109E+03  0.50400001928E-02 0. -1.
       -1   -1    0    0    0  501  0.00000000000E+00  0.00000000000E+00 -0.76833974163E+03  0.76833974164E+03  0.50400001928E-02 0.  1.
    10030    2    1    2    0    0  0.00000000000E+00  0.00000000000E+00  0.17600467945E+03  0.17126841627E+04  0.17036165631E+04 0.  0.
        5    1    3    3  502    0  0.63082181422E+03 -0.51140673324E+03 -0.17043058361E+03  0.82978411766E+03  0.46999998093E+01 0.  1.
       -5    1    3    3    0  502 -0.63082181422E+03  0.51140673324E+03  0.34643526305E+03  0.88290004507E+03  0.46999998093E+01 0. -1.
</event>
<event>
 5   0  0.6539134E-05  0.1699306E+04  0.7818609E-02  0.8761760E-01
       -1   -1    0    0    0  501  0.00000000000E+00  0.00000000000E+00  0.54750454137E+03  0.54750454139E+03  0.50400001928E-02 0. -1.
        1   -1    0    0  501    0  0.00000000000E+00  0.00000000000E+00 -0.13185472261E+04  0.13185472261E+04  0.50400001928E-02 0.  1.
    10030    2    1    2    0    0  0.00000000000E+00  0.00000000000E+00 -0.77104268473E+03  0.18660517675E+04  0.16993064401E+04 0.  0.
        2    1    3    3  502    0 -0.50933495834E+03 -0.60748626276E+03 -0.72121192874E+03  0.10717314521E+04  0.25500000920E-02 0. -1.
       -2    1    3    3    0  502  0.50933495834E+03  0.60748626276E+03 -0.49830755990E+02  0.79432031542E+03  0.25500000920E-02 0.  1.
</event>
<event>
 5   0  0.6539134E-05  0.1731486E+04  0.7818609E-02  0.8743608E-01
        1   -1    0    0  501    0  0.00000000000E+00  0.00000000000E+00  0.96073562727E+03  0.96073562728E+03  0.50400001928E-02 0.  1.
       -1   -1    0    0    0  501  0.00000000000E+00  0.00000000000E+00 -0.78014281059E+03  0.78014281060E+03  0.50400001928E-02 0. -1.
    10030    2    1    2    0    0  0.00000000000E+00  0.00000000000E+00  0.18059281669E+03  0.17408784379E+04  0.17314860583E+04 0.  0.
        2    1    3    3  502    0  0.80843022458E+03 -0.12942912841E+03 -0.19265451801E+03  0.84108685082E+03  0.25500000920E-02 0. -1.
       -2    1    3    3    0  502 -0.80843022458E+03  0.12942912841E+03  0.37324733469E+03  0.89979158707E+03  0.25500000920E-02 0.  1.
</event>
<event>
 5   0  0.6539134E-05  0.1719141E+04  0.7818609E-02  0.8750522E-01
        1   -1    0    0  501    0  0.00000000000E+00  0.00000000000E+00  0.89769894644E+03  0.89769894645E+03  0.50400001928E-02 0.  1.
       -1   -1    0    0    0  501  0.00000000000E+00  0.00000000000E+00 -0.82306171412E+03  0.82306171413E+03  0.50400001928E-02 0. -1.
    10030    2    1    2    0    0  0.00000000000E+00  0.00000000000E+00  0.74637232320E+02  0.17207606606E+04  0.17191412201E+04 0.  0.
        2    1    3    3  502    0  0.84378775669E+03  0.16031410072E+03  0.28878930712E+01  0.85888691291E+03  0.25500000920E-02 0.  1.
       -2    1    3    3    0  502 -0.84378775669E+03 -0.16031410072E+03  0.71749339249E+02  0.86187374767E+03  0.25500000920E-02 0. -1.
</event>
<event>
 5   0  0.1333546E-04  0.1708927E+04  0.7818609E-02  0.8756290E-01
        2   -1    0    0  501    0  0.00000000000E+00  0.00000000000E+00  0.92652262661E+03  0.92652262661E+03  0.25500000920E-02 0.  1.
       -2   -1    0    0    0  501  0.00000000000E+00  0.00000000000E+00 -0.78800832320E+03  0.78800832320E+03  0.25500000920E-02 0. -1.
    10030    2    1    2    0    0  0.00000000000E+00  0.00000000000E+00  0.13851430341E+03  0.17145309498E+04  0.17089266121E+04 0.  0.
        5    1    3    3  502    0 -0.32930703673E+03 -0.34537369597E+03  0.78035465805E+03  0.91471394252E+03  0.46999998093E+01 0.  1.
       -5    1    3    3    0  502  0.32930703673E+03  0.34537369597E+03 -0.64184035464E+03  0.79981700729E+03  0.46999998093E+01 0. -1.
</event>
<event>
 5   0  0.6601906E-05  0.1694015E+04  0.7818609E-02  0.8764785E-01
        1   -1    0    0  501    0  0.00000000000E+00  0.00000000000E+00  0.67711072905E+03  0.67711072907E+03  0.50400001928E-02 0. -1.
       -1   -1    0    0    0  501  0.00000000000E+00  0.00000000000E+00 -0.10595341359E+04  0.10595341359E+04  0.50400001928E-02 0.  1.
    10030    2    1    2    0    0  0.00000000000E+00  0.00000000000E+00 -0.38242340686E+03  0.17366448650E+04  0.16940152671E+04 0.  0.
        1    1    3    3  502    0  0.47805981297E+02 -0.64772164928E+03  0.36615485087E+03  0.74558575740E+03  0.50400001928E-02 0. -1.
       -1    1    3    3    0  502 -0.47805981297E+02  0.64772164928E+03 -0.74857825774E+03  0.99105910761E+03  0.50400001928E-02 0.  1.
</event>
<event>
 5   0  0.4720875E-05  0.1693612E+04  0.7818609E-02  0.8765016E-01
        3   -1    0    0  501    0  0.00000000000E+00  0.00000000000E+00  0.13058968325E+04  0.13058968364E+04  0.10100000352E+00 0. -1.
       -3   -1    0    0    0  501  0.00000000000E+00  0.00000000000E+00 -0.54910982467E+03  0.54910983396E+03  0.10100000352E+00 0.  1.
    10030    2    1    2    0    0  0.00000000000E+00  0.00000000000E+00  0.75678700783E+03  0.18550066704E+04  0.16936124621E+04 0.  0.
        3    1    3    3  502    0 -0.41710217395E+03  0.62932082411E+03 -0.41637609542E+02  0.75614325620E+03  0.10100000352E+00 0.  1.
       -3    1    3    3    0  502  0.41710217395E+03 -0.62932082411E+03  0.79842461738E+03  0.10988634142E+04  0.10100000352E+00 0. -1.
</event>
<event>
 5   0  0.1333546E-04  0.1701138E+04  0.7818609E-02  0.8760715E-01
        2   -1    0    0  501    0  0.00000000000E+00  0.00000000000E+00  0.12645474430E+04  0.12645474430E+04  0.25500000920E-02 0.  1.
       -2   -1    0    0    0  501  0.00000000000E+00  0.00000000000E+00 -0.57211600015E+03  0.57211600015E+03  0.25500000920E-02 0. -1.
    10030    2    1    2    0    0  0.00000000000E+00  0.00000000000E+00  0.69243144282E+03  0.18366634431E+04  0.17011382367E+04 0.  0.
        5    1    3    3  502    0  0.80834346450E+02 -0.37311197225E+03  0.11668332385E+04  0.12277086918E+04  0.46999998093E+01 0.  1.
       -5    1    3    3    0  502 -0.80834346450E+02  0.37311197225E+03 -0.47440179570E+03  0.60895475133E+03  0.46999998093E+01 0. -1.
</event>
<event>
 5   0  0.6564887E-05  0.1608856E+04  0.7818609E-02  0.8815126E-01
        1   -1    0    0  501    0  0.00000000000E+00  0.00000000000E+00  0.10844417562E+04  0.10844417562E+04  0.50400001928E-02 0. -1.
       -1   -1    0    0    0  501  0.00000000000E+00  0.00000000000E+00 -0.59671661784E+03  0.59671661786E+03  0.50400001928E-02 0.  1.
    10030    2    1    2    0    0  0.00000000000E+00  0.00000000000E+00  0.48772513838E+03  0.16811583741E+04  0.16088560122E+04 0.  0.
        4    1    3    3  502    0  0.11549797252E+03 -0.58716139408E+02  0.10734657764E+04  0.10812574868E+04  0.12699999809E+01 0. -1.
       -4    1    3    3    0  502 -0.11549797252E+03  0.58716139408E+02 -0.58574063802E+03  0.59990088732E+03  0.12699999809E+01 0.  1.
</event>
<event>
 5   0  0.1285639E-04  0.1693376E+04  0.7818609E-02  0.8765151E-01
        2   -1    0    0  501    0  0.00000000000E+00  0.00000000000E+00  0.11831222451E+04  0.11831222451E+04  0.25500000920E-02 0. -1.
       -2   -1    0    0    0  501  0.00000000000E+00  0.00000000000E+00 -0.60592271617E+03  0.60592271617E+03  0.25500000920E-02 0.  1.
    10030    2    1    2    0    0  0.00000000000E+00  0.00000000000E+00  0.57719952888E+03  0.17890449612E+04  0.16933760885E+04 0.  0.
        4    1    3    3  502    0 -0.68724128620E+03 -0.60546612067E+02  0.80715801409E+03  0.10618249151E+04  0.12699999809E+01 0. -1.
       -4    1    3    3    0  502  0.68724128620E+03  0.60546612067E+02 -0.22995848520E+03  0.72722004614E+03  0.12699999809E+01 0.  1.
</event>
<event>
 5   0  0.1255362E-04  0.1704515E+04  0.7818609E-02  0.8758794E-01
       -2   -1    0    0    0  501  0.00000000000E+00  0.00000000000E+00  0.11591368079E+04  0.11591368079E+04  0.25500000920E-02 0. -1.
        2   -1    0    0  501    0  0.00000000000E+00  0.00000000000E+00 -0.62662359625E+03  0.62662359626E+03  0.25500000920E-02 0.  1.
    10030    2    1    2    0    0  0.00000000000E+00  0.00000000000E+00  0.53251321163E+03  0.17857604041E+04  0.17045145645E+04 0.  0.
        1    1    3    3  502    0  0.66057920112E+02  0.52498105232E+03 -0.43370107255E+03  0.68415303439E+03  0.50400001928E-02 0.  1.
       -1    1    3    3    0  502 -0.66057920112E+02 -0.52498105232E+03  0.96621428418E+03  0.11016073698E+04  0.50400001928E-02 0. -1.
</event>
<event>
 5   0  0.6615842E-05  0.1695992E+04  0.7818609E-02  0.8763653E-01
       -1   -1    0    0    0  501  0.00000000000E+00  0.00000000000E+00  0.54432598942E+03  0.54432598945E+03  0.50400001928E-02 0. -1.
        1   -1    0    0  501    0  0.00000000000E+00  0.00000000000E+00 -0.13210786687E+04  0.13210786687E+04  0.50400001928E-02 0.  1.
    10030    2    1    2    0    0  0.00000000000E+00  0.00000000000E+00 -0.77675267925E+03  0.18654046581E+04  0.16959922800E+04 0.  0.
        3    1    3    3  502    0  0.19703675410E+03  0.21381512871E+03  0.48778588162E+03  0.56786923516E+03  0.10100000352E+00 0. -1.
       -3    1    3    3    0  502 -0.19703675410E+03 -0.21381512871E+03 -0.12645385609E+04  0.12975354230E+04  0.10100000352E+00 0.  1.
</event>
<event>
 5   0  0.1393870E-04  0.1699544E+04  0.7818609E-02  0.8761625E-01
        2   -1    0    0  501    0  0.00000000000E+00  0.00000000000E+00  0.78851974983E+03  0.78851974984E+03  0.25500000920E-02 0. -1.
       -2   -1    0    0    0  501  0.00000000000E+00  0.00000000000E+00 -0.91578226614E+03  0.91578226614E+03  0.25500000920E-02 0.  1.
    10030    2    1    2    0    0  0.00000000000E+00  0.00000000000E+00 -0.12726251630E+03  0.17043020160E+04  0.16995439428E+04 0.  0.
        3    1    3    3  502    0  0.72673747719E+03  0.28955005207E+03  0.26914987593E+03  0.82730179458E+03  0.10100000352E+00 0.  1.
       -3    1    3    3    0  502 -0.72673747719E+03 -0.28955005207E+03 -0.39641239224E+03  0.87700022139E+03  0.10100000352E+00 0. -1.
</event>
<event>
 5   0  0.6564887E-05  0.1719031E+04  0.7818609E-02  0.8750584E-01
        1   -1    0    0  501    0  0.00000000000E+00  0.00000000000E+00  0.74825901756E+03  0.74825901758E+03  0.50400001928E-02 0. -1.
       -1   -1    0    0    0  501  0.00000000000E+00  0.00000000000E+00 -0.98731461326E+03  0.98731461327E+03  0.50400001928E-02 0.  1.
    10030    2    1    2    0    0  0.00000000000E+00  0.00000000000E+00 -0.23905559570E+03  0.17355736309E+04  0.17190311953E+04 0.  0.
        4    1    3    3  502    0 -0.58433387897E+03 -0.30080492920E+03 -0.67878588528E+03  0.94481827803E+03  0.12699999809E+01 0. -1.
       -4    1    3    3    0  502  0.58433387897E+03  0.30080492920E+03  0.43973028958E+03  0.79075535282E+03  0.12699999809E+01 0.  1.
</event>
<event>
 5   0  0.1269175E-04  0.1703523E+04  0.7818609E-02  0.8759358E-01
       -2   -1    0    0    0  501  0.00000000000E+00  0.00000000000E+00  0.64852218468E+03  0.64852218469E+03  0.25500000920E-02 0. -1.
        2   -1    0    0  501    0  0.00000000000E+00  0.00000000000E+00 -0.11186938505E+04  0.11186938505E+04  0.25500000920E-02 0.  1.
    10030    2    1    2    0    0  0.00000000000E+00  0.00000000000E+00 -0.47017166581E+03  0.17672160352E+04  0.17035231492E+04 0.  0.
        2    1    3    3  502    0 -0.28303531904E+03 -0.38875815235E+03  0.49423316978E+03  0.68957111233E+03  0.25500000920E-02 0. -1.
       -2    1    3    3    0  502  0.28303531904E+03  0.38875815235E+03 -0.96440483559E+03  0.10776449229E+04  0.25500000920E-02 0.  1.
</event>
<event>
 5   0  0.6564887E-05  0.1696193E+04  0.7818609E-02  0.8763539E-01
       -1   -1    0    0    0  501  0.00000000000E+00  0.00000000000E+00  0.39200594130E+03  0.39200594133E+03  0.50400001928E-02 0. -1.
        1   -1    0    0  501    0  0.00000000000E+00  0.00000000000E+00 -0.18348389083E+04  0.18348389083E+04  0.50400001928E-02 0.  1.
    10030    2    1    2    0    0  0.00000000000E+00  0.00000000000E+00 -0.14428329670E+04  0.22268448496E+04  0.16961930944E+04 0.  0.
        4    1    3    3  502    0  0.63359922809E+03  0.55254064958E+03 -0.86829714107E+03  0.12085903729E+04  0.12699999809E+01 0.  1.
       -4    1    3    3    0  502 -0.63359922809E+03 -0.55254064958E+03 -0.57453582588E+03  0.10182544767E+04  0.12699999809E+01 0. -1.
</event>
<event>
 5   0  0.6564887E-05  0.1705125E+04  0.7818609E-02  0.8758447E-01
        1   -1    0    0  501    0  0.00000000000E+00  0.00000000000E+00  0.70341952504E+03  0.70341952506E+03  0.50400001928E-02 0.  1.
       -1   -1    0    0    0  501  0.00000000000E+00  0.00000000000E+00 -0.10333280635E+04  0.10333280635E+04  0.50400001928E-02 0. -1.
    10030    2    1    2    0    0  0.00000000000E+00  0.00000000000E+00 -0.32990853846E+03  0.17367475886E+04  0.17051253745E+04 0.  0.
        4    1    3    3  502    0  0.13166979647E+02 -0.78084873342E+03 -0.51329591224E+03  0.93454396379E+03  0.12699999809E+01 0. -1.
       -4    1    3    3    0  502 -0.13166979647E+02  0.78084873342E+03  0.18338737378E+03  0.80220362478E+03  0.12699999809E+01 0.  1.
</event>
<event>
 5   0  0.6539134E-05  0.1695400E+04  0.7818609E-02  0.8763992E-01
       -1   -1    0    0    0  501  0.00000000000E+00  0.00000000000E+00  0.46351808586E+03  0.46351808589E+03  0.50400001928E-02 0. -1.
        1   -1    0    0  501    0  0.00000000000E+00  0.00000000000E+00 -0.15503062207E+04  0.15503062207E+04  0.50400001928E-02 0.  1.
    10030    2    1    2    0    0  0.00000000000E+00  0.00000000000E+00 -0.10867881348E+04  0.20138243065E+04  0.16953996248E+04 0.  0.
        2    1    3    3  502    0  0.64292000865E+03  0.53852460207E+03 -0.39675718315E+03  0.92777753096E+03  0.25500000920E-02 0. -1.
       -2    1    3    3    0  502 -0.64292000865E+03 -0.53852460207E+03 -0.69003095163E+03  0.10860467756E+04  0.25500000920E-02 0.  1.
</event>
<event>
 5   0  0.1269175E-04  0.1691340E+04  0.7818609E-02  0.8766319E-01
        2   -1    0    0  501    0  0.00000000000E+00  0.00000000000E+00  0.12108136639E+04  0.12108136639E+04  0.25500000920E-02 0.  1.
       -2   -1    0    0    0  501  0.00000000000E+00  0.00000000000E+00 -0.59064244358E+03  0.59064244358E+03  0.25500000920E-02 0. -1.
    10030    2    1    2    0    0  0.00000000000E+00  0.00000000000E+00  0.62017122034E+03  0.18014561075E+04  0.16913402274E+04 0.  0.
        2    1    3    3  502    0 -0.14114986502E+03 -0.35671902398E+03  0.11128010133E+04  0.11770717232E+04  0.25500000920E-02 0.  1.
       -2    1    3    3    0  502  0.14114986502E+03  0.35671902398E+03 -0.49262979292E+03  0.62438438429E+03  0.25500000920E-02 0. -1.
</event>
<event>
 5   0  0.1255362E-04  0.1660192E+04  0.7818609E-02  0.8784400E-01
        2   -1    0    0  501    0  0.00000000000E+00  0.00000000000E+00  0.11930696533E+04  0.11930696533E+04  0.25500000920E-02 0.  1.
       -2   -1    0    0    0  501  0.00000000000E+00  0.00000000000E+00 -0.57755159713E+03  0.57755159713E+03  0.25500000920E-02 0. -1.
    10030    2    1    2    0    0  0.00000000000E+00  0.00000000000E+00  0.61551805620E+03  0.17706212505E+04  0.16601918971E+04 0.  0.
        1    1    3    3  502    0  0.28008614368E+03  0.77251900470E+03  0.43316164517E+03  0.92890412389E+03  0.50400001928E-02 0.  1.
       -1    1    3    3    0  502 -0.28008614368E+03 -0.77251900470E+03  0.18235641103E+03  0.84171712658E+03  0.50400001928E-02 0. -1.
</event>
<event>
 5   0  0.4720875E-05  0.1698675E+04  0.7818609E-02  0.8762120E-01
        4   -1    0    0  501    0  0.00000000000E+00  0.00000000000E+00  0.55121569495E+03  0.55121715799E+03  0.12699999809E+01 0. -1.
       -4   -1    0    0    0  501  0.00000000000E+00  0.00000000000E+00 -0.13086932049E+04  0.13086938211E+04  0.12699999809E+01 0.  1.
    10030    2    1    2    0    0  0.00000000000E+00  0.00000000000E+00 -0.75747750993E+03  0.18599109791E+04  0.16986749754E+04 0.  0.
        3    1    3    3  502    0  0.59348075475E+03  0.15456271676E+03 -0.10221049258E+04  0.11919763123E+04  0.10100000352E+00 0.  1.
       -3    1    3    3    0  502 -0.59348075475E+03 -0.15456271676E+03  0.26462741582E+03  0.66793466678E+03  0.10100000352E+00 0. -1.
</event>
<event>
 5   0  0.1255362E-04  0.1682781E+04  0.7818609E-02  0.8771247E-01
       -2   -1    0    0    0  501  0.00000000000E+00  0.00000000000E+00  0.42275406596E+03  0.42275406597E+03  0.25500000920E-02 0.  1.
        2   -1    0    0  501    0  0.00000000000E+00  0.00000000000E+00 -0.16745851235E+04  0.16745851235E+04  0.25500000920E-02 0. -1.
    10030    2    1    2    0    0  0.00000000000E+00  0.00000000000E+00 -0.12518310576E+04  0.20973391895E+04  0.16827806390E+04 0.  0.
        1    1    3    3  502    0 -0.10863053977E+03 -0.80485404819E+03 -0.35186787056E+03  0.88509978614E+03  0.50400001928E-02 0.  1.
       -1    1    3    3    0  502  0.10863053977E+03  0.80485404819E+03 -0.89996318700E+03  0.12122394034E+04  0.50400001928E-02 0. -1.
</event>
<event>
 5   0  0.6601906E-05  0.1697566E+04  0.7818609E-02  0.8762754E-01
       -1   -1    0    0    0  501  0.00000000000E+00  0.00000000000E+00  0.76208993134E+03  0.76208993136E+03  0.50400001928E-02 0.  1.
        1   -1    0    0  501    0  0.00000000000E+00  0.00000000000E+00 -0.94533809337E+03  0.94533809339E+03  0.50400001928E-02 0. -1.
    10030    2    1    2    0    0  0.00000000000E+00  0.00000000000E+00 -0.18324816203E+03  0.17074280247E+04  0.16975660726E+04 0.  0.
        1    1    3    3  502    0  0.26336696955E+03  0.75224704894E+03 -0.38520134165E+03  0.88522192524E+03  0.50400001928E-02 0. -1.
       -1    1    3    3    0  502 -0.26336696955E+03 -0.75224704894E+03  0.20195317962E+03  0.82220609951E+03  0.50400001928E-02 0.  1.
</event>
<event>
 5   0  0.1333546E-04  0.1690273E+04  0.7818609E-02  0.8766932E-01
        2   -1    0    0  501    0  0.00000000000E+00  0.00000000000E+00  0.29509938342E+03  0.29509938343E+03  0.25500000920E-02 0.  1.
       -2   -1    0    0    0  501  0.00000000000E+00  0.00000000000E+00 -0.24203900326E+04  0.24203900326E+04  0.25500000920E-02 0. -1.
    10030    2    1    2    0    0  0.00000000000E+00  0.00000000000E+00 -0.21252906492E+04  0.27154894160E+04  0.16902728848E+04 0.  0.
        5    1    3    3  502    0 -0.37786816637E+02 -0.70455638945E+03 -0.18099985366E+04  0.19426642381E+04  0.46999998093E+01 0. -1.
       -5    1    3    3    0  502  0.37786816637E+02  0.70455638945E+03 -0.31529211257E+03  0.77282517794E+03  0.46999998093E+01 0.  1.
</event>
<event>
 5   0  0.1285639E-04  0.1696013E+04  0.7818609E-02  0.8763641E-01
       -2   -1    0    0    0  501  0.00000000000E+00  0.00000000000E+00  0.28210300921E+03  0.28210300922E+03  0.25500000920E-02 0. -1.
        2   -1    0    0  501    0  0.00000000000E+00  0.00000000000E+00 -0.25491235056E+04  0.25491235056E+04  0.25500000920E-02 0.  1.
    10030    2    1    2    0    0  0.00000000000E+00  0.00000000000E+00 -0.22670204964E+04  0.28312265148E+04  0.16960134572E+04 0.  0.
        4    1    3    3  502    0  0.58170652978E+02 -0.21514104654E+03  0.23233830940E+03  0.32195061374E+03  0.12699999809E+01 0. -1.
       -4    1    3    3    0  502 -0.58170652978E+02  0.21514104654E+03 -0.24993588058E+04  0.25092759011E+04  0.12699999809E+01 0.  1.
</event>
<event>
 5   0  0.1285639E-04  0.1692448E+04  0.7818609E-02  0.8765684E-01
        2   -1    0    0  501    0  0.00000000000E+00  0.00000000000E+00  0.14224194899E+04  0.14224194899E+04  0.25500000920E-02 0. -1.
       -2   -1    0    0    0  501  0.00000000000E+00  0.00000000000E+00 -0.50343424126E+03  0.50343424127E+03  0.25500000920E-02 0.  1.
    10030    2    1    2    0    0  0.00000000000E+00  0.00000000000E+00  0.91898524861E+03  0.19258537311E+04  0.16924475491E+04 0.  0.
        4    1    3    3  502    0  0.65084105654E+03  0.25048224024E+03  0.10049276869E+04  0.12231993715E+04  0.12699999809E+01 0. -1.
       -4    1    3    3    0  502 -0.65084105654E+03 -0.25048224024E+03 -0.85942438313E+02  0.70265435966E+03  0.12699999809E+01 0.  1.
</event>
<event>
 5   0  0.6539134E-05  0.1701149E+04  0.7818609E-02  0.8760709E-01
        1   -1    0    0  501    0  0.00000000000E+00  0.00000000000E+00  0.63260359700E+03  0.63260359702E+03  0.50400001928E-02 0.  1.
       -1   -1    0    0    0  501  0.00000000000E+00  0.00000000000E+00 -0.11436495149E+04  0.11436495149E+04  0.50400001928E-02 0. -1.
    10030    2    1    2    0    0  0.00000000000E+00  0.00000000000E+00 -0.51104591794E+03  0.17762531120E+04  0.17011487847E+04 0.  0.
        2    1    3    3  502    0 -0.65944341150E+02  0.75514310213E+03 -0.65841713983E+03  0.10040432714E+04  0.25500000920E-02 0. -1.
       -2    1    3    3    0  502  0.65944341150E+02 -0.75514310213E+03  0.14737122190E+03  0.77220984057E+03  0.25500000920E-02 0.  1.
</event>
<event>
 5   0  0.6615842E-05  0.1697688E+04  0.7818609E-02  0.8762684E-01
        1   -1    0    0  501    0  0.00000000000E+00  0.00000000000E+00  0.78141036323E+03  0.78141036325E+03  0.50400001928E-02 0.  1.
       -1   -1    0    0    0  501  0.00000000000E+00  0.00000000000E+00 -0.92209684504E+03  0.92209684506E+03  0.50400001928E-02 0. -1.
    10030    2    1    2    0    0  0.00000000000E+00  0.00000000000E+00 -0.14068648181E+03  0.17035072083E+04  0.16976878755E+04 0.  0.
        3    1    3    3  502    0 -0.56486780139E+03 -0.39713889151E+03  0.42505048440E+03  0.81084083314E+03  0.10100000352E+00 0.  1.
       -3    1    3    3    0  502  0.56486780139E+03  0.39713889151E+03 -0.56573696622E+03  0.89266637516E+03  0.10100000352E+00 0. -1.
</event>
<event>
 5   0  0.6834837E-05  0.1700886E+04  0.7818609E-02  0.8760859E-01
        1   -1    0    0  501    0  0.00000000000E+00  0.00000000000E+00  0.20480736890E+04  0.20480736890E+04  0.50400001928E-02 0. -1.
       -1   -1    0    0    0  501  0.00000000000E+00  0.00000000000E+00 -0.35313850220E+03  0.35313850223E+03  0.50400001928E-02 0.  1.
    10030    2    1    2    0    0  0.00000000000E+00  0.00000000000E+00  0.16949351868E+04  0.24012121912E+04  0.17008864453E+04 0.  0.
        5    1    3    3  502    0  0.79593103040E+03 -0.24394782975E+03  0.10928623854E+04  0.13738220526E+04  0.46999998093E+01 0. -1.
       -5    1    3    3    0  502 -0.79593103040E+03  0.24394782975E+03  0.60207280140E+03  0.10273901386E+04  0.46999998093E+01 0.  1.
</event>
<event>
 5   0  0.1285639E-04  0.1699782E+04  0.7818609E-02  0.8761488E-01
        2   -1    0    0  501    0  0.00000000000E+00  0.00000000000E+00  0.88707875422E+03  0.88707875423E+03  0.25500000920E-02 0.  1.
       -2   -1    0    0    0  501  0.00000000000E+00  0.00000000000E+00 -0.81426258425E+03  0.81426258426E+03  0.25500000920E-02 0. -1.
    10030    2    1    2    0    0  0.00000000000E+00  0.00000000000E+00  0.72816169972E+02  0.17013413385E+04  0.16997823847E+04 0.  0.
        4    1    3    3  502    0  0.60829388762E+03 -0.57685028167E+03 -0.10349036228E+03  0.84468311760E+03  0.12699999809E+01 0. -1.
       -4    1    3    3    0  502 -0.60829388762E+03  0.57685028167E+03  0.17630653226E+03  0.85665822088E+03  0.12699999809E+01 0.  1.
</event>
<event>
 5   0  0.1333546E-04  0.1706325E+04  0.7818609E-02  0.8757765E-01
       -2   -1    0    0    0  501  0.00000000000E+00  0.00000000000E+00  0.10871736456E+04  0.10871736456E+04  0.25500000920E-02 0. -1.
        2   -1    0    0  501    0  0.00000000000E+00  0.00000000000E+00 -0.66952199880E+03  0.66952199880E+03  0.25500000920E-02 0.  1.
    10030    2    1    2    0    0  0.00000000000E+00  0.00000000000E+00  0.41765164680E+03  0.17566956444E+04  0.17063254933E+04 0.  0.
        5    1    3    3  502    0  0.56955475394E+03  0.28355157971E+03 -0.37634582218E+03  0.73922417707E+03  0.46999998093E+01 0.  1.
       -5    1    3    3    0  502 -0.56955475394E+03 -0.28355157971E+03  0.79399746899E+03  0.10174714673E+04  0.46999998093E+01 0. -1.
</event>
<event>
 5   0  0.1255362E-04  0.1697084E+04  0.7818609E-02  0.8763029E-01
        2   -1    0    0  501    0  0.00000000000E+00  0.00000000000E+00  0.63212846509E+03  0.63212846510E+03  0.25500000920E-02 0. -1.
       -2   -1    0    0    0  501  0.00000000000E+00  0.00000000000E+00 -0.11390461280E+04  0.11390461280E+04  0.25500000920E-02 0.  1.
    10030    2    1    2    0    0  0.00000000000E+00  0.00000000000E+00 -0.50691766287E+03  0.17711745931E+04  0.16970839467E+04 0.  0.
        1    1    3    3  502    0 -0.57533512238E+03 -0.62245425503E+03 -0.29472856760E+03  0.89739886965E+03  0.50400001928E-02 0.  1.
       -1    1    3    3    0  502  0.57533512238E+03  0.62245425503E+03 -0.21218909527E+03  0.87377572342E+03  0.50400001928E-02 0. -1.
</event>
<event>
 5   0  0.1255362E-04  0.1704869E+04  0.7818609E-02  0.8758592E-01
        2   -1    0    0  501    0  0.00000000000E+00  0.00000000000E+00  0.13867679096E+04  0.13867679096E+04  0.25500000920E-02 0. -1.
       -2   -1    0    0    0  501  0.00000000000E+00  0.00000000000E+00 -0.52398436384E+03  0.52398436385E+03  0.25500000920E-02 0.  1.
    10030    2    1    2    0    0  0.00000000000E+00  0.00000000000E+00  0.86278354578E+03  0.19107522735E+04  0.17048691456E+04 0.  0.
        1    1    3    3  502    0  0.81932446698E+03  0.20608693615E+03  0.55858858091E+03  0.10128107475E+04  0.50400001928E-02 0. -1.
       -1    1    3    3    0  502 -0.81932446698E+03 -0.20608693615E+03  0.30419496487E+03  0.89794152600E+03  0.50400001928E-02 0.  1.
</event>
<event>
 5   0  0.4720875E-05  0.1692661E+04  0.7818609E-02  0.8765561E-01
        3   -1    0    0  501    0  0.00000000000E+00  0.00000000000E+00  0.20350670957E+04  0.20350670982E+04  0.10100000352E+00 0. -1.
       -3   -1    0    0    0  501  0.00000000000E+00  0.00000000000E+00 -0.35196626758E+03  0.35196628207E+03  0.10100000352E+00 0.  1.
    10030    2    1    2    0    0  0.00000000000E+00  0.00000000000E+00  0.16831008281E+04  0.23870333802E+04  0.16926606160E+04 0.  0.
        2    1    3    3  502    0 -0.40808083546E+03  0.66490849463E+03  0.37887235126E+03  0.86728169187E+03  0.25500000920E-02 0.  1.
       -2    1    3    3    0  502  0.40808083546E+03 -0.66490849463E+03  0.13042284768E+04  0.15197516884E+04  0.25500000920E-02 0. -1.
</event>
<event>
 5   0  0.4720875E-05  0.1703781E+04  0.7818609E-02  0.8759211E-01
       -3   -1    0    0    0  501  0.00000000000E+00  0.00000000000E+00  0.45232304215E+03  0.45232305343E+03  0.10100000352E+00 0.  1.
        3   -1    0    0  501    0  0.00000000000E+00  0.00000000000E+00 -0.16044230028E+04  0.16044230060E+04  0.10100000352E+00 0. -1.
    10030    2    1    2    0    0  0.00000000000E+00  0.00000000000E+00 -0.11520999607E+04  0.20567460595E+04  0.17037810991E+04 0.  0.
        4    1    3    3  502    0 -0.41330690178E+03 -0.21825542881E+03 -0.14358179744E+04  0.15099777799E+04  0.12699999809E+01 0. -1.
       -4    1    3    3    0  502  0.41330690178E+03  0.21825542881E+03  0.28371801375E+03  0.54676827952E+03  0.12699999809E+01 0.  1.
</event>
<event>
 5   0  0.1285639E-04  0.1703381E+04  0.7818609E-02  0.8759439E-01
       -2   -1    0    0    0  501  0.00000000000E+00  0.00000000000E+00  0.41571123727E+03  0.41571123728E+03  0.25500000920E-02 0.  1.
        2   -1    0    0  501    0  0.00000000000E+00  0.00000000000E+00 -0.17449046495E+04  0.17449046496E+04  0.25500000920E-02 0. -1.
    10030    2    1    2    0    0  0.00000000000E+00  0.00000000000E+00 -0.13291934123E+04  0.21606158868E+04  0.17033807217E+04 0.  0.
        4    1    3    3  502    0 -0.14551166392E+03  0.82948164791E+03 -0.50334457893E+03  0.98110693943E+03  0.12699999809E+01 0. -1.
       -4    1    3    3    0  502  0.14551166392E+03 -0.82948164791E+03 -0.82584883335E+03  0.11795089474E+04  0.12699999809E+01 0.  1.
</event>
<event>
 5   0  0.6564887E-05  0.1705115E+04  0.7818609E-02  0.8758452E-01
        1   -1    0    0  501    0  0.00000000000E+00  0.00000000000E+00  0.77986255602E+03  0.77986255604E+03  0.50400001928E-02 0.  1.
       -1   -1    0    0    0  501  0.00000000000E+00  0.00000000000E+00 -0.93202882473E+03  0.93202882474E+03  0.50400001928E-02 0. -1.
    10030    2    1    2    0    0  0.00000000000E+00  0.00000000000E+00 -0.15216626871E+03  0.17118913808E+04  0.17051151065E+04 0.  0.
        4    1    3    3  502    0  0.26375711899E+03 -0.43685413462E+03  0.60959766256E+03  0.79499702883E+03  0.12699999809E+01 0.  1.
       -4    1    3    3    0  502 -0.26375711899E+03  0.43685413462E+03 -0.76176393127E+03  0.91689435195E+03  0.12699999809E+01 0. -1.
</event>
<event>
 5   0  0.1285639E-04  0.1699682E+04  0.7818609E-02  0.8761546E-01
       -2   -1    0    0    0  501  0.00000000000E+00  0.00000000000E+00  0.24278139800E+04  0.24278139800E+04  0.25500000920E-02 0. -1.
        2   -1    0    0  501    0  0.00000000000E+00  0.00000000000E+00 -0.29748156230E+03  0.29748156231E+03  0.25500000920E-02 0.  1.
    10030    2    1    2    0    0  0.00000000000E+00  0.00000000000E+00  0.21303324177E+04  0.27252955424E+04  0.16996822006E+04 0.  0.
        4    1    3    3  502    0  0.35328337046E+03 -0.44774446958E+03  0.54958871988E+02  0.57298022688E+03  0.12699999809E+01 0.  1.
       -4    1    3    3    0  502 -0.35328337046E+03  0.44774446958E+03  0.20753735458E+04  0.21523153155E+04  0.12699999809E+01 0. -1.
</event>
<event>
 5   0  0.6615842E-05  0.1712266E+04  0.7818609E-02  0.8754399E-01
        1   -1    0    0  501    0  0.00000000000E+00  0.00000000000E+00  0.25028616280E+04  0.25028616280E+04  0.50400001928E-02 0. -1.
       -1   -1    0    0    0  501  0.00000000000E+00  0.00000000000E+00 -0.29285020781E+03  0.29285020785E+03  0.50400001928E-02 0.  1.
    10030    2    1    2    0    0  0.00000000000E+00  0.00000000000E+00  0.22100114202E+04  0.27957118359E+04  0.17122658064E+04 0.  0.
        3    1    3    3  502    0  0.65091253557E+03 -0.36229053900E+03  0.41610278711E+03  0.85327785817E+03  0.10100000352E+00 0.  1.
       -3    1    3    3    0  502 -0.65091253557E+03  0.36229053900E+03  0.17939086331E+04  0.19424339777E+04  0.10100000352E+00 0. -1.
</event>
<event>
 5   0  0.6564887E-05  0.1681896E+04  0.7818609E-02  0.8771757E-01
        1   -1    0    0  501    0  0.00000000000E+00  0.00000000000E+00  0.12839835665E+04  0.12839835665E+04  0.50400001928E-02 0. -1.
       -1   -1    0    0    0  501  0.00000000000E+00  0.00000000000E+00 -0.55078098340E+03  0.55078098343E+03  0.50400001928E-02 0.  1.
    10030    2    1    2    0    0  0.00000000000E+00  0.00000000000E+00  0.73320258305E+03  0.18347645499E+04  0.16818962292E+04 0.  0.
        4    1    3    3  502    0  0.69634257509E+03 -0.10205803678E+03  0.86874670617E+03  0.11180479762E+04  0.12699999809E+01 0. -1.
       -4    1    3    3    0  502 -0.69634257509E+03  0.10205803678E+03 -0.13554412312E+03  0.71671657367E+03  0.12699999809E+01 0.  1.
</event>
<event>
 5   0  0.6539134E-05  0.1696560E+04  0.7818609E-02  0.8763329E-01
       -1   -1    0    0    0  501  0.00000000000E+00  0.00000000000E+00  0.52143266636E+03  0.52143266638E+03  0.50400001928E-02 0.  1.
        1   -1    0    0  501    0  0.00000000000E+00  0.00000000000E+00 -0.13800038186E+04  0.13800038186E+04  0.50400001928E-02 0. -1.
    10030    2    1    2    0    0  0.00000000000E+00  0.00000000000E+00 -0.85857115227E+03  0.19014364850E+04  0.16965601325E+04 0.  0.
        2    1    3    3  502    0 -0.60483473080E+03  0.54066133577E+03 -0.70708787393E+03  0.10761565839E+04  0.25500000920E-02 0. -1.
       -2    1    3    3    0  502  0.60483473080E+03 -0.54066133577E+03 -0.15148327834E+03  0.82527990113E+03  0.25500000920E-02 0.  1.
</event>
<event>
 5   0  0.1255362E-04  0.1698667E+04  0.7818609E-02  0.8762125E-01
        2   -1    0    0  501    0  0.00000000000E+00  0.00000000000E+00  0.27721298101E+04  0.27721298101E+04  0.25500000920E-02 0. -1.
       -2   -1    0    0    0  501  0.00000000000E+00  0.00000000000E+00 -0.26022145336E+03  0.26022145338E+03  0.25500000920E-02 0.  1.
    10030    2    1    2    0    0  0.00000000000E+00  0.00000000000E+00  0.25119083567E+04  0.30323512635E+04  0.16986672989E+04 0.  0.
        1    1    3    3  502    0  0.62781034873E+03 -0.44874883271E+03  0.62268054532E+03  0.99159084827E+03  0.50400001928E-02 0.  1.
       -1    1    3    3    0  502 -0.62781034873E+03  0.44874883271E+03  0.18892278114E+04  0.20407604152E+04  0.50400001928E-02 0. -1.
</event>
<event>
 5   0  0.6601906E-05  0.1704005E+04  0.7818609E-02  0.8759083E-01
        1   -1    0    0  501    0  0.00000000000E+00  0.00000000000E+00  0.18218881761E+04  0.18218881762E+04  0.50400001928E-02 0. -1.
       -1   -1    0    0    0  501  0.00000000000E+00  0.00000000000E+00 -0.39843753862E+03  0.39843753865E+03  0.50400001928E-02 0.  1.
    10030    2    1    2    0    0  0.00000000000E+00  0.00000000000E+00  0.14234506375E+04  0.22203257148E+04  0.17040054467E+04 0.  0.
        1    1    3    3  502    0 -0.40310772570E+03 -0.24521665687E+03  0.16361067942E+04  0.17027837471E+04  0.50400001928E-02 0. -1.
       -1    1    3    3    0  502  0.40310772570E+03  0.24521665687E+03 -0.21265615669E+03  0.51754196770E+03  0.50400001928E-02 0.  1.
</event>
<event>
 5   0  0.1255362E-04  0.1720262E+04  0.7818609E-02  0.8749892E-01
        2   -1    0    0  501    0  0.00000000000E+00  0.00000000000E+00  0.14260854403E+04  0.14260854403E+04  0.25500000920E-02 0. -1.
       -2   -1    0    0    0  501  0.00000000000E+00  0.00000000000E+00 -0.51878079602E+03  0.51878079602E+03  0.25500000920E-02 0.  1.
    10030    2    1    2    0    0  0.00000000000E+00  0.00000000000E+00  0.90730464431E+03  0.19448662364E+04  0.17202624683E+04 0.  0.
        1    1    3    3  502    0  0.62420432847E+03 -0.51848096168E+03  0.77615477429E+03  0.11228845822E+04  0.50400001928E-02 0. -1.
       -1    1    3    3    0  502 -0.62420432847E+03  0.51848096168E+03  0.13114987002E+03  0.82198165413E+03  0.50400001928E-02 0.  1.
</event>
<event>
 5   0  0.1269175E-04  0.1699455E+04  0.7818609E-02  0.8761675E-01
        2   -1    0    0  501    0  0.00000000000E+00  0.00000000000E+00  0.16450204124E+04  0.16450204124E+04  0.25500000920E-02 0. -1.
       -2   -1    0    0    0  501  0.00000000000E+00  0.00000000000E+00 -0.43892286673E+03  0.43892286674E+03  0.25500000920E-02 0.  1.
    10030    2    1    2    0    0  0.00000000000E+00  0.00000000000E+00  0.12060975457E+04  0.20839432791E+04  0.16994552954E+04 0.  0.
        2    1    3    3  502    0 -0.26790885596E+03 -0.17781388250E+03 -0.36143872444E+03  0.48376738568E+03  0.25500000920E-02 0.  1.
       -2    1    3    3    0  502  0.26790885596E+03  0.17781388250E+03  0.15675362701E+04  0.16001758934E+04  0.25500000920E-02 0. -1.
</event>
<event>
 5   0  0.1285639E-04  0.1700327E+04  0.7818609E-02  0.8761178E-01
        2   -1    0    0  501    0  0.00000000000E+00  0.00000000000E+00  0.92876501648E+03  0.92876501648E+03  0.25500000920E-02 0.  1.
       -2   -1    0    0    0  501  0.00000000000E+00  0.00000000000E+00 -0.77821447501E+03  0.77821447501E+03  0.25500000920E-02 0. -1.
    10030    2    1    2    0    0  0.00000000000E+00  0.00000000000E+00  0.15055054147E+03  0.17069794915E+04  0.17003274740E+04 0.  0.
        4    1    3    3  502    0  0.36882711326E+03  0.74886934304E+03 -0.86407693199E+02  0.83922978663E+03  0.12699999809E+01 0. -1.
       -4    1    3    3    0  502 -0.36882711326E+03 -0.74886934304E+03  0.23695823467E+03  0.86774970487E+03  0.12699999809E+01 0.  1.
</event>
<event>
 5   0  0.6564887E-05  0.1698857E+04  0.7818609E-02  0.8762017E-01
       -1   -1    0    0    0  501  0.00000000000E+00  0.00000000000E+00  0.70144900352E+03  0.70144900354E+03  0.50400001928E-02 0.  1.
        1   -1    0    0  501    0  0.00000000000E+00  0.00000000000E+00 -0.10286256353E+04  0.10286256353E+04  0.50400001928E-02 0. -1.
    10030    2    1    2    0    0  0.00000000000E+00  0.00000000000E+00 -0.32717663173E+03  0.17300746388E+04  0.16988565883E+04 0.  0.
        4    1    3    3  502    0  0.97255710380E+01  0.30719030300E+03  0.64283832653E+03  0.71253294376E+03  0.12699999809E+01 0.  1.
       -4    1    3    3    0  502 -0.97255710380E+01 -0.30719030300E+03 -0.97001495826E+03  0.10175416950E+04  0.12699999809E+01 0. -1.
</event>
<event>
 5   0  0.6601906E-05  0.1702980E+04  0.7818609E-02  0.8759667E-01
       -1   -1    0    0    0  501  0.00000000000E+00  0.00000000000E+00  0.44084497313E+03  0.44084497316E+03  0.50400001928E-02 0.  1.
        1   -1    0    0  501    0  0.00000000000E+00  0.00000000000E+00 -0.16446487688E+04  0.16446487688E+04  0.50400001928E-02 0. -1.
    10030    2    1    2    0    0  0.00000000000E+00  0.00000000000E+00 -0.12038037957E+04  0.20854937420E+04  0.17029799087E+04 0.  0.
        1    1    3    3  502    0 -0.75597320386E+03  0.72553816103E+02 -0.10734589166E+04  0.13149424272E+04  0.50400001928E-02 0.  1.
       -1    1    3    3    0  502  0.75597320386E+03 -0.72553816103E+02 -0.13034487907E+03  0.77055131478E+03  0.50400001928E-02 0. -1.
</event>
<event>
 5   0  0.1285639E-04  0.1699281E+04  0.7818609E-02  0.8761775E-01
       -2   -1    0    0    0  501  0.00000000000E+00  0.00000000000E+00  0.34783326437E+03  0.34783326437E+03  0.25500000920E-02 0.  1.
        2   -1    0    0  501    0  0.00000000000E+00  0.00000000000E+00 -0.20753878088E+04  0.20753878088E+04  0.25500000920E-02 0. -1.
    10030    2    1    2    0    0  0.00000000000E+00  0.00000000000E+00 -0.17275545444E+04  0.24232210731E+04  0.16992809260E+04 0.  0.
        4    1    3    3  502    0 -0.62633981507E+03  0.12757739096E+03 -0.16619829427E+04  0.17806646145E+04  0.12699999809E+01 0. -1.
       -4    1    3    3    0  502  0.62633981507E+03 -0.12757739096E+03 -0.65571601653E+02  0.64255645859E+03  0.12699999809E+01 0.  1.
</event>
<event>
 5   0  0.1333546E-04  0.1664571E+04  0.7818609E-02  0.8781833E-01
       -2   -1    0    0    0  501  0.00000000000E+00  0.00000000000E+00  0.68895279559E+03  0.68895279559E+03  0.25500000920E-02 0.  1.
        2   -1    0    0  501    0  0.00000000000E+00  0.00000000000E+00 -0.10054381343E+04  0.10054381343E+04  0.25500000920E-02 0. -1.
    10030    2    1    2    0    0  0.00000000000E+00  0.00000000000E+00 -0.31648533873E+03  0.16943909299E+04  0.16645713123E+04 0.  0.
        5    1    3    3  502    0  0.74046830431E+02  0.47876770411E+02  0.68417117333E+03  0.68984592676E+03  0.46999998093E+01 0.  1.
       -5    1    3    3    0  502 -0.74046830431E+02 -0.47876770411E+02 -0.10006565121E+04  0.10045450032E+04  0.46999998093E+01 0. -1.
</event>
<event>
 5   0  0.6539134E-05  0.1705419E+04  0.7818609E-02  0.8758280E-01
        1   -1    0    0  501    0  0.00000000000E+00  0.00000000000E+00  0.78348448922E+03  0.78348448923E+03  0.50400001928E-02 0. -1.
       -1   -1    0    0    0  501  0.00000000000E+00  0.00000000000E+00 -0.92805069374E+03  0.92805069376E+03  0.50400001928E-02 0.  1.
    10030    2    1    2    0    0  0.00000000000E+00  0.00000000000E+00 -0.14456620453E+03  0.17115351830E+04  0.17054188034E+04 0.  0.
        2    1    3    3  502    0  0.85055068080E+01  0.38449675002E+03  0.69150039640E+03  0.79125400008E+03  0.25500000920E-02 0. -1.
       -2    1    3    3    0  502 -0.85055068080E+01 -0.38449675002E+03 -0.83606660092E+03  0.92028118290E+03  0.25500000920E-02 0.  1.
</event>
<event>
 5   0  0.6615842E-05  0.1695085E+04  0.7818609E-02  0.8764173E-01
       -1   -1    0    0    0  501  0.00000000000E+00  0.00000000000E+00  0.56573133305E+03  0.56573133307E+03  0.50400001928E-02 0.  1.
        1   -1    0    0  501    0  0.00000000000E+00  0.00000000000E+00 -0.12697336063E+04  0.12697336063E+04  0.50400001928E-02 0. -1.
    10030    2    1    2    0    0  0.00000000000E+00  0.00000000000E+00 -0.70400227329E+03  0.18354649394E+04  0.16950847598E+04 0.  0.
        3    1    3    3  502    0 -0.54531104531E+03  0.11236678180E+02 -0.10544455793E+04  0.11871587463E+04  0.10100000352E+00 0. -1.
       -3    1    3    3    0  502  0.54531104531E+03 -0.11236678180E+02  0.35044330601E+03  0.64830619309E+03  0.10100000352E+00 0.  1.
</event>
<event>
 5   0  0.1269175E-04  0.1699541E+04  0.7818609E-02  0.8761626E-01
        2   -1    0    0  501    0  0.00000000000E+00  0.00000000000E+00  0.64696736390E+03  0.64696736390E+03  0.25500000920E-02 0. -1.
       -2   -1    0    0    0  501  0.00000000000E+00  0.00000000000E+00 -0.11161463205E+04  0.11161463205E+04  0.25500000920E-02 0.  1.
    10030    2    1    2    0    0  0.00000000000E+00  0.00000000000E+00 -0.46917895662E+03  0.17631136844E+04  0.16995414002E+04 0.  0.
        2    1    3    3  502    0 -0.52142823904E+03 -0.62519573837E+03  0.18148411708E+02  0.81430122473E+03  0.25500000920E-02 0.  1.
       -2    1    3    3    0  502  0.52142823904E+03  0.62519573837E+03 -0.48732736833E+03  0.94881245969E+03  0.25500000920E-02 0. -1.
</event>
<event>
 5   0  0.1285639E-04  0.1733996E+04  0.7818609E-02  0.8742209E-01
       -2   -1    0    0    0  501  0.00000000000E+00  0.00000000000E+00  0.95377791380E+03  0.95377791380E+03  0.25500000920E-02 0.  1.
        2   -1    0    0  501    0  0.00000000000E+00  0.00000000000E+00 -0.78811360452E+03  0.78811360453E+03  0.25500000920E-02 0. -1.
    10030    2    1    2    0    0  0.00000000000E+00  0.00000000000E+00  0.16566430928E+03  0.17418915183E+04  0.17339957896E+04 0.  0.
        4    1    3    3  502    0  0.74755104427E+03  0.36954388172E+03 -0.15550012893E+03  0.84827893249E+03  0.12699999809E+01 0. -1.
       -4    1    3    3    0  502 -0.74755104427E+03 -0.36954388172E+03  0.32116443820E+03  0.89361258584E+03  0.12699999809E+01 0.  1.
</event>
<event>
 5   0  0.6601906E-05  0.1692949E+04  0.7818609E-02  0.8765396E-01
       -1   -1    0    0    0  501  0.00000000000E+00  0.00000000000E+00  0.47414416658E+03  0.47414416660E+03  0.50400001928E-02 0. -1.
        1   -1    0    0  501    0  0.00000000000E+00  0.00000000000E+00 -0.15111836391E+04  0.15111836391E+04  0.50400001928E-02 0.  1.
    10030    2    1    2    0    0  0.00000000000E+00  0.00000000000E+00 -0.10370394725E+04  0.19853278057E+04  0.16929487968E+04 0.  0.
        1    1    3    3  502    0 -0.15842294957E+03  0.63641124715E+03  0.10907063836E+03  0.66484096642E+03  0.50400001928E-02 0. -1.
       -1    1    3    3    0  502  0.15842294957E+03 -0.63641124715E+03 -0.11461101108E+04  0.13204868393E+04  0.50400001928E-02 0.  1.
</event>
<event>
 5   0  0.6601906E-05  0.1701192E+04  0.7818609E-02  0.8760685E-01
       -1   -1    0    0    0  501  0.00000000000E+00  0.00000000000E+00  0.10196635960E+04  0.10196635960E+04  0.50400001928E-02 0.  1.
        1   -1    0    0  501    0  0.00000000000E+00  0.00000000000E+00 -0.70956093206E+03  0.70956093208E+03  0.50400001928E-02 0. -1.
    10030    2    1    2    0    0  0.00000000000E+00  0.00000000000E+00  0.31010266395E+03  0.17292245281E+04  0.17011918782E+04 0.  0.
        1    1    3    3  502    0 -0.12796669814E+03 -0.82465936142E+03 -0.12204636479E+02  0.83461817101E+03  0.50400001928E-02 0.  1.
       -1    1    3    3    0  502  0.12796669814E+03  0.82465936142E+03  0.32230730043E+03  0.89460635709E+03  0.50400001928E-02 0. -1.
</event>
<event>
 5   0  0.1393870E-04  0.1696447E+04  0.7818609E-02  0.8763393E-01
        2   -1    0    0  501    0  0.00000000000E+00  0.00000000000E+00  0.95086527716E+03  0.95086527716E+03  0.25500000920E-02 0.  1.
       -2   -1    0    0    0  501  0.00000000000E+00  0.00000000000E+00 -0.75666165170E+03  0.75666165171E+03  0.25500000920E-02 0. -1.
    10030    2    1    2    0    0  0.00000000000E+00  0.00000000000E+00  0.19420362545E+03  0.17075269289E+04  0.16964472184E+04 0.  0.
        3    1    3    3  502    0  0.33125092581E+03  0.28189294173E+03 -0.63586606405E+03  0.77040019993E+03  0.10100000352E+00 0. -1.
       -3    1    3    3    0  502 -0.33125092581E+03 -0.28189294173E+03  0.83006968950E+03  0.93712672893E+03  0.10100000352E+00 0.  1.
</event>
<event>
 5   0  0.6564887E-05  0.1694005E+04  0.7818609E-02  0.8764791E-01
       -1   -1    0    0    0  501  0.00000000000E+00  0.00000000000E+00  0.60835896985E+03  0.60835896987E+03  0.50400001928E-02 0. -1.
        1   -1    0    0  501    0  0.00000000000E+00  0.00000000000E+00 -0.11792591285E+04  0.11792591285E+04  0.50400001928E-02 0.  1.
    10030    2    1    2    0    0  0.00000000000E+00  0.00000000000E+00 -0.57090015866E+03  0.17876180984E+04  0.16940045675E+04 0.  0.
        4    1    3    3  502    0 -0.27487247564E+03  0.74763029024E+03 -0.58929458272E+03  0.99084592489E+03  0.12699999809E+01 0.  1.
       -4    1    3    3    0  502  0.27487247564E+03 -0.74763029024E+03  0.18394424059E+02  0.79677217351E+03  0.12699999809E+01 0. -1.
</event>
<event>
 5   0  0.6601906E-05  0.1706099E+04  0.7818609E-02  0.8757893E-01
        1   -1    0    0  501    0  0.00000000000E+00  0.00000000000E+00  0.93922816890E+03  0.93922816892E+03  0.50400001928E-02 0.  1.
       -1   -1    0    0    0  501  0.00000000000E+00  0.00000000000E+00 -0.77477854130E+03  0.77477854132E+03  0.50400001928E-02 0. -1.
    10030    2    1    2    0    0  0.00000000000E+00  0.00000000000E+00  0.16444962761E+03  0.17140067102E+04  0.17060994469E+04 0.  0.
        1    1    3    3  502    0  0.37750311410E+03  0.10401714463E+03 -0.67915684390E+03  0.78395292344E+03  0.50400001928E-02 0. -1.
       -1    1    3    3    0  502 -0.37750311410E+03 -0.10401714463E+03  0.84360647151E+03  0.93005378679E+03  0.50400001928E-02 0.  1.
</event>
<event>
 5   0  0.6601906E-05  0.1703269E+04  0.7818609E-02  0.8759502E-01
       -1   -1    0    0    0  501  0.00000000000E+00  0.00000000000E+00  0.41886086718E+03  0.41886086721E+03  0.50400001928E-02 0.  1.
        1   -1    0    0  501    0  0.00000000000E+00  0.00000000000E+00 -0.17315565937E+04  0.17315565937E+04  0.50400001928E-02 0. -1.
    10030    2    1    2    0    0  0.00000000000E+00  0.00000000000E+00 -0.13126957266E+04  0.21504174610E+04  0.17032689705E+04 0.  0.
        1    1    3    3  502    0  0.57355457035E+03  0.62786132395E+03 -0.71429493953E+03  0.11105818061E+04  0.50400001928E-02 0.  1.
       -1    1    3    3    0  502 -0.57355457035E+03 -0.62786132395E+03 -0.59840078703E+03  0.10398356549E+04  0.50400001928E-02 0. -1.
</event>
<event>
 5   0  0.6615842E-05  0.1609190E+04  0.7818609E-02  0.8814922E-01
        1   -1    0    0  501    0  0.00000000000E+00  0.00000000000E+00  0.62226704953E+03  0.62226704955E+03  0.50400001928E-02 0.  1.
       -1   -1    0    0    0  501  0.00000000000E+00  0.00000000000E+00 -0.10403459359E+04  0.10403459359E+04  0.50400001928E-02 0. -1.
    10030    2    1    2    0    0  0.00000000000E+00  0.00000000000E+00 -0.41807888637E+03  0.16626129855E+04  0.16091898534E+04 0.  0.
        3    1    3    3  502    0 -0.58051475276E+02 -0.31291953764E+03 -0.97254773482E+03  0.10232974726E+04  0.10100000352E+00 0. -1.
       -3    1    3    3    0  502  0.58051475276E+02  0.31291953764E+03  0.55446884845E+03  0.63931551281E+03  0.10100000352E+00 0.  1.
</event>
<event>
 5   0  0.4720875E-05  0.1712007E+04  0.7818609E-02  0.8754546E-01
       -4   -1    0    0    0  501  0.00000000000E+00  0.00000000000E+00  0.14489619430E+04  0.14489624996E+04  0.12699999809E+01 0. -1.
        4   -1    0    0  501    0  0.00000000000E+00  0.00000000000E+00 -0.50569972118E+03  0.50570131590E+03  0.12699999809E+01 0.  1.
    10030    2    1    2    0    0  0.00000000000E+00  0.00000000000E+00  0.94326222185E+03  0.19546638155E+04  0.17120067209E+04 0.  0.
        4    1    3    3  502    0  0.62343381814E+02  0.77288796934E+03  0.57607059713E+02  0.77753629924E+03  0.12699999809E+01 0.  1.
       -4    1    3    3    0  502 -0.62343381814E+02 -0.77288796934E+03  0.88565516214E+03  0.11771275163E+04  0.12699999809E+01 0. -1.
</event>
<event>
 5   0  0.6564887E-05  0.1688746E+04  0.7818609E-02  0.8767809E-01
       -1   -1    0    0    0  501  0.00000000000E+00  0.00000000000E+00  0.79597075346E+03  0.79597075348E+03  0.50400001928E-02 0. -1.
        1   -1    0    0  501    0  0.00000000000E+00  0.00000000000E+00 -0.89571819914E+03  0.89571819916E+03  0.50400001928E-02 0.  1.
    10030    2    1    2    0    0  0.00000000000E+00  0.00000000000E+00 -0.99747445685E+02  0.16916889526E+04  0.16887456764E+04 0.  0.
        4    1    3    3  502    0 -0.55006842875E+03  0.10410411511E+02 -0.69152129460E+03  0.88367809000E+03  0.12699999809E+01 0.  1.
       -4    1    3    3    0  502  0.55006842875E+03 -0.10410411511E+02  0.59177384891E+03  0.80801086263E+03  0.12699999809E+01 0. -1.
</event>
<event>
 5   0  0.6601906E-05  0.1696124E+04  0.7818609E-02  0.8763578E-01
       -1   -1    0    0    0  501  0.00000000000E+00  0.00000000000E+00  0.80376101494E+03  0.80376101496E+03  0.50400001928E-02 0.  1.
        1   -1    0    0  501    0  0.00000000000E+00  0.00000000000E+00 -0.89480444894E+03  0.89480444895E+03  0.50400001928E-02 0. -1.
    10030    2    1    2    0    0  0.00000000000E+00  0.00000000000E+00 -0.91043433997E+02  0.16985654639E+04  0.16961237361E+04 0.  0.
        1    1    3    3  502    0  0.82261812239E+03  0.16884514674E+03 -0.16401226462E+03  0.85563384799E+03  0.50400001928E-02 0. -1.
       -1    1    3    3    0  502 -0.82261812239E+03 -0.16884514674E+03  0.72968830628E+02  0.84293161592E+03  0.50400001928E-02 0.  1.
</event>
<event>
 5   0  0.6601906E-05  0.1698505E+04  0.7818609E-02  0.8762217E-01
       -1   -1    0    0    0  501  0.00000000000E+00  0.00000000000E+00  0.40339451890E+03  0.40339451893E+03  0.50400001928E-02 0. -1.
        1   -1    0    0  501    0  0.00000000000E+00  0.00000000000E+00 -0.17879022375E+04  0.17879022375E+04  0.50400001928E-02 0.  1.
    10030    2    1    2    0    0  0.00000000000E+00  0.00000000000E+00 -0.13845077186E+04  0.21912967565E+04  0.16985051816E+04 0.  0.
        1    1    3    3  502    0 -0.46200655929E+02  0.30553704704E+03  0.32829117144E+03  0.45084640510E+03  0.50400001928E-02 0. -1.
       -1    1    3    3    0  502  0.46200655929E+02 -0.30553704704E+03 -0.17127988901E+04  0.17404503514E+04  0.50400001928E-02 0.  1.
</event>
<event>
 5   0  0.1333546E-04  0.1701947E+04  0.7818609E-02  0.8760255E-01
       -2   -1    0    0    0  501  0.00000000000E+00  0.00000000000E+00  0.11154862521E+04  0.11154862522E+04  0.25500000920E-02 0. -1.
        2   -1    0    0  501    0  0.00000000000E+00  0.00000000000E+00 -0.64918370788E+03  0.64918370789E+03  0.25500000920E-02 0.  1.
    10030    2    1    2    0    0  0.00000000000E+00  0.00000000000E+00  0.46630254427E+03  0.17646699600E+04  0.17019465341E+04 0.  0.
        5    1    3    3  502    0  0.50823002978E+03 -0.29596176079E+03  0.87083101173E+03  0.10508376982E+04  0.46999998093E+01 0. -1.
       -5    1    3    3    0  502 -0.50823002978E+03  0.29596176079E+03 -0.40452846747E+03  0.71383226182E+03  0.46999998093E+01 0.  1.
</event>
<event>
 5   0  0.1285639E-04  0.1692297E+04  0.7818609E-02  0.8765770E-01
        2   -1    0    0  501    0  0.00000000000E+00  0.00000000000E+00  0.14743102829E+04  0.14743102829E+04  0.25500000920E-02 0.  1.
       -2   -1    0    0    0  501  0.00000000000E+00  0.00000000000E+00 -0.48562845726E+03  0.48562845727E+03  0.25500000920E-02 0. -1.
    10030    2    1    2    0    0  0.00000000000E+00  0.00000000000E+00  0.98868182562E+03  0.19599387402E+04  0.16922966976E+04 0.  0.
        4    1    3    3  502    0  0.75350748976E+02  0.40803121813E+03  0.13483940162E+04  0.14107924178E+04  0.12699999809E+01 0.  1.
       -4    1    3    3    0  502 -0.75350748976E+02 -0.40803121813E+03 -0.35971219060E+03  0.54914632231E+03  0.12699999809E+01 0. -1.
</event>
<event>
 5   0  0.6834837E-05  0.1716066E+04  0.7818609E-02  0.8752254E-01
        1   -1    0    0  501    0  0.00000000000E+00  0.00000000000E+00  0.15432435211E+04  0.15432435212E+04  0.50400001928E-02 0.  1.
       -1   -1    0    0    0  501  0.00000000000E+00  0.00000000000E+00 -0.47706045760E+03  0.47706045763E+03  0.50400001928E-02 0. -1.
    10030    2    1    2    0    0  0.00000000000E+00  0.00000000000E+00  0.10661830635E+04  0.20203039788E+04  0.17160658034E+04 0.  0.
        5    1    3    3  502    0  0.32224845844E+03  0.69829631770E+03  0.98098207876E+03  0.12465190512E+04  0.46999998093E+01 0.  1.
       -5    1    3    3    0  502 -0.32224845844E+03 -0.69829631770E+03  0.85200984783E+02  0.77378492754E+03  0.46999998093E+01 0. -1.
</event>
<event>
 5   0  0.1285639E-04  0.1691317E+04  0.7818609E-02  0.8766332E-01
        2   -1    0    0  501    0  0.00000000000E+00  0.00000000000E+00  0.79021138826E+03  0.79021138826E+03  0.25500000920E-02 0.  1.
       -2   -1    0    0    0  501  0.00000000000E+00  0.00000000000E+00 -0.90499632063E+03  0.90499632064E+03  0.25500000920E-02 0. -1.
    10030    2    1    2    0    0  0.00000000000E+00  0.00000000000E+00 -0.11478493238E+03  0.16952077089E+04  0.16913171186E+04 0.  0.
        4    1    3    3  502    0 -0.45876004948E+03  0.71812341241E+02 -0.76578483809E+03  0.89557011255E+03  0.12699999809E+01 0. -1.
       -4    1    3    3    0  502  0.45876004948E+03 -0.71812341241E+02  0.65099990571E+03  0.79963759634E+03  0.12699999809E+01 0.  1.
</event>
<event>
 5   0  0.6615842E-05  0.1705216E+04  0.7818609E-02  0.8758395E-01
        1   -1    0    0  501    0  0.00000000000E+00  0.00000000000E+00  0.18581004400E+04  0.18581004400E+04  0.50400001928E-02 0.  1.
       -1   -1    0    0    0  501  0.00000000000E+00  0.00000000000E+00 -0.39122790783E+03  0.39122790786E+03  0.50400001928E-02 0. -1.
    10030    2    1    2    0    0  0.00000000000E+00  0.00000000000E+00  0.14668725322E+04  0.22493283478E+04  0.17052164059E+04 0.  0.
        3    1    3    3  502    0  0.37674940379E+03 -0.50641892829E+03 -0.22643832420E+02  0.63159559652E+03  0.10100000352E+00 0. -1.
       -3    1    3    3    0  502 -0.37674940379E+03  0.50641892829E+03  0.14895163646E+04  0.16177327513E+04  0.10100000352E+00 0.  1.
</event>
<event>
 5   0  0.1269175E-04  0.1701312E+04  0.7818609E-02  0.8760616E-01
        2   -1    0    0  501    0  0.00000000000E+00  0.00000000000E+00  0.18881794145E+04  0.18881794145E+04  0.25500000920E-02 0.  1.
       -2   -1    0    0    0  501  0.00000000000E+00  0.00000000000E+00 -0.38323461985E+03  0.38323461986E+03  0.25500000920E-02 0. -1.
    10030    2    1    2    0    0  0.00000000000E+00  0.00000000000E+00  0.15049447947E+04  0.22714140344E+04  0.17013121056E+04 0.  0.
        2    1    3    3  502    0  0.30574063058E+03 -0.21916980084E+03 -0.26614766571E+03  0.46081158271E+03  0.25500000920E-02 0. -1.
       -2    1    3    3    0  502 -0.30574063058E+03  0.21916980084E+03  0.17710924604E+04  0.18106024517E+04  0.25500000920E-02 0.  1.
</event>
<event>
 5   0  0.1255362E-04  0.1696643E+04  0.7818609E-02  0.8763281E-01
        2   -1    0    0  501    0  0.00000000000E+00  0.00000000000E+00  0.23944566790E+04  0.23944566790E+04  0.25500000920E-02 0. -1.
       -2   -1    0    0    0  501  0.00000000000E+00  0.00000000000E+00 -0.30054825939E+03  0.30054825940E+03  0.25500000920E-02 0.  1.
    10030    2    1    2    0    0  0.00000000000E+00  0.00000000000E+00  0.20939084196E+04  0.26950049384E+04  0.16966434948E+04 0.  0.
        1    1    3    3  502    0 -0.35538667746E+03 -0.54810987194E+03  0.18725271636E+03  0.67954963178E+03  0.50400001928E-02 0.  1.
       -1    1    3    3    0  502  0.35538667746E+03  0.54810987194E+03  0.19066557033E+04  0.20154553066E+04  0.50400001928E-02 0. -1.
</event>
<event>
 5   0  0.6564887E-05  0.1691319E+04  0.7818609E-02  0.8766331E-01
       -1   -1    0    0    0  501  0.00000000000E+00  0.00000000000E+00  0.70752369221E+03  0.70752369223E+03  0.50400001928E-02 0. -1.
        1   -1    0    0  501    0  0.00000000000E+00  0.00000000000E+00 -0.10107643174E+04  0.10107643174E+04  0.50400001928E-02 0.  1.
    10030    2    1    2    0    0  0.00000000000E+00  0.00000000000E+00 -0.30324062517E+03  0.17182880096E+04  0.16913186593E+04 0.  0.
        4    1    3    3  502    0 -0.46452092763E+02 -0.55776194116E+02 -0.10075926290E+04  0.10102045831E+04  0.12699999809E+01 0.  1.
       -4    1    3    3    0  502  0.46452092763E+02  0.55776194116E+02  0.70435200383E+03  0.70808342655E+03  0.12699999809E+01 0. -1.
</event>
<event>
 5   0  0.1255362E-04  0.1700647E+04  0.7818609E-02  0.8760995E-01
       -2   -1    0    0    0  501  0.00000000000E+00  0.00000000000E+00  0.10419739243E+04  0.10419739244E+04  0.25500000920E-02 0. -1.
        2   -1    0    0  501    0  0.00000000000E+00  0.00000000000E+00 -0.69392351697E+03  0.69392351697E+03  0.25500000920E-02 0.  1.
    10030    2    1    2    0    0  0.00000000000E+00  0.00000000000E+00  0.34805040738E+03  0.17358974413E+04  0.17006471829E+04 0.  0.
        1    1    3    3  502    0 -0.21751782967E+03 -0.12162843782E+03  0.10038602130E+04  0.10343320600E+04  0.50400001928E-02 0. -1.
       -1    1    3    3    0  502  0.21751782967E+03  0.12162843782E+03 -0.65580980561E+03  0.70156538132E+03  0.50400001928E-02 0.  1.
</event>
<event>
 5   0  0.6539134E-05  0.1696861E+04  0.7818609E-02  0.8763157E-01
       -1   -1    0    0    0  501  0.00000000000E+00  0.00000000000E+00  0.10307342073E+04  0.10307342073E+04  0.50400001928E-02 0.  1.
        1   -1    0    0  501    0  0.00000000000E+00  0.00000000000E+00 -0.69837017530E+03  0.69837017532E+03  0.50400001928E-02 0. -1.
    10030    2    1    2    0    0  0.00000000000E+00  0.00000000000E+00  0.33236403198E+03  0.17291043826E+04  0.16968606649E+04 0.  0.
        2    1    3    3  502    0 -0.80239449583E+03 -0.21143297927E+03 -0.14078246403E+02  0.82990302367E+03  0.25500000920E-02 0.  1.
       -2    1    3    3    0  502  0.80239449583E+03  0.21143297927E+03  0.34644227838E+03  0.89920135894E+03  0.25500000920E-02 0. -1.
</event>
<event>
 5   0  0.1285639E-04  0.1708157E+04  0.7818609E-02  0.8756726E-01
       -2   -1    0    0    0  501  0.00000000000E+00  0.00000000000E+00  0.16729576084E+04  0.16729576084E+04  0.25500000920E-02 0.  1.
        2   -1    0    0  501    0  0.00000000000E+00  0.00000000000E+00 -0.43602430489E+03  0.43602430490E+03  0.25500000920E-02 0. -1.
    10030    2    1    2    0    0  0.00000000000E+00  0.00000000000E+00  0.12369333035E+04  0.21089819133E+04  0.17081571103E+04 0.  0.
        4    1    3    3  502    0 -0.59486422117E+03  0.58954802673E+03  0.41180231930E+03  0.93328081547E+03  0.12699999809E+01 0. -1.
       -4    1    3    3    0  502  0.59486422117E+03 -0.58954802673E+03  0.82513098423E+03  0.11757010978E+04  0.12699999809E+01 0.  1.
</event>
<event>
 5   0  0.1393870E-04  0.1703672E+04  0.7818609E-02  0.8759273E-01
        2   -1    0    0  501    0  0.00000000000E+00  0.00000000000E+00  0.14266683481E+04  0.14266683481E+04  0.25500000920E-02 0. -1.
       -2   -1    0    0    0  501  0.00000000000E+00  0.00000000000E+00 -0.50861473218E+03  0.50861473218E+03  0.25500000920E-02 0.  1.
    10030    2    1    2    0    0  0.00000000000E+00  0.00000000000E+00  0.91805361593E+03  0.19352830803E+04  0.17036719635E+04 0.  0.
        3    1    3    3  502    0  0.27584725387E+03  0.67357736028E+03  0.96170969530E+03  0.12061026971E+04  0.10100000352E+00 0. -1.
       -3    1    3    3    0  502 -0.27584725387E+03 -0.67357736028E+03 -0.43656079371E+02  0.72918038318E+03  0.10100000352E+00 0.  1.
</event>
<event>
 5   0  0.6539134E-05  0.1701698E+04  0.7818609E-02  0.8760396E-01
       -1   -1    0    0    0  501  0.00000000000E+00  0.00000000000E+00  0.10530603712E+04  0.10530603712E+04  0.50400001928E-02 0. -1.
        1   -1    0    0  501    0  0.00000000000E+00  0.00000000000E+00 -0.68746683289E+03  0.68746683291E+03  0.50400001928E-02 0.  1.
    10030    2    1    2    0    0  0.00000000000E+00  0.00000000000E+00  0.36559353832E+03  0.17405272041E+04  0.17016980675E+04 0.  0.
        2    1    3    3  502    0  0.65868099870E+03  0.50811516930E+03  0.10879768019E+00  0.83189043459E+03  0.25500000920E-02 0. -1.
       -2    1    3    3    0  502 -0.65868099870E+03 -0.50811516930E+03  0.36548474064E+03  0.90863676954E+03  0.25500000920E-02 0.  1.
</event>
<event>
 5   0  0.6564887E-05  0.1699094E+04  0.7818609E-02  0.8761881E-01
        1   -1    0    0  501    0  0.00000000000E+00  0.00000000000E+00  0.15237935703E+04  0.15237935703E+04  0.50400001928E-02 0. -1.
       -1   -1    0    0    0  501  0.00000000000E+00  0.00000000000E+00 -0.47364012172E+03  0.47364012175E+03  0.50400001928E-02 0.  1.
    10030    2    1    2    0    0  0.00000000000E+00  0.00000000000E+00  0.10501534486E+04  0.19974336921E+04  0.16990936080E+04 0.  0.
        4    1    3    3  502    0 -0.40580746143E+03 -0.20419756079E+03 -0.31885433778E+03  0.55501895572E+03  0.12699999809E+01 0.  1.
       -4    1    3    3    0  502  0.40580746143E+03  0.20419756079E+03  0.13690077864E+04  0.14424147363E+04  0.12699999809E+01 0. -1.
</event>
<event>
 5   0  0.6615842E-05  0.1714072E+04  0.7818609E-02  0.8753379E-01
        1   -1    0    0  501    0  0.00000000000E+00  0.00000000000E+00  0.11158713792E+04  0.11158713792E+04  0.50400001928E-02 0.  1.
       -1   -1    0    0    0  501  0.00000000000E+00  0.00000000000E+00 -0.65823969421E+03  0.65823969422E+03  0.50400001928E-02 0. -1.
    10030    2    1    2    0    0  0.00000000000E+00  0.00000000000E+00  0.45763168499E+03  0.17741110734E+04  0.17140721519E+04 0.  0.
        3    1    3    3  502    0 -0.11545144520E+02 -0.52722685054E+03 -0.47042854569E+03  0.70668555178E+03  0.10100000352E+00 0. -1.
       -3    1    3    3    0  502  0.11545144520E+02  0.52722685054E+03  0.92806023068E+03  0.10674255216E+04  0.10100000352E+00 0.  1.
</event>
<event>
 5   0  0.6615842E-05  0.1695829E+04  0.7818609E-02  0.8763747E-01
       -1   -1    0    0    0  501  0.00000000000E+00  0.00000000000E+00  0.44618212581E+03  0.44618212584E+03  0.50400001928E-02 0. -1.
        1   -1    0    0  501    0  0.00000000000E+00  0.00000000000E+00 -0.16113578836E+04  0.16113578836E+04  0.50400001928E-02 0.  1.
    10030    2    1    2    0    0  0.00000000000E+00  0.00000000000E+00 -0.11651757578E+04  0.20575400095E+04  0.16958291022E+04 0.  0.
        3    1    3    3  502    0  0.51255863804E+03  0.32822176222E+03  0.13368056238E+03  0.62315037157E+03  0.10100000352E+00 0. -1.
       -3    1    3    3    0  502 -0.51255863804E+03 -0.32822176222E+03 -0.12988563202E+04  0.14343896379E+04  0.10100000352E+00 0.  1.
</event>
<event>
 5   0  0.1255362E-04  0.1700179E+04  0.7818609E-02  0.8761262E-01
        2   -1    0    0  501    0  0.00000000000E+00  0.00000000000E+00  0.85598616812E+03  0.85598616813E+03  0.25500000920E-02 0. -1.
       -2   -1    0    0    0  501  0.00000000000E+00  0.00000000000E+00 -0.84423334874E+03  0.84423334874E+03  0.25500000920E-02 0.  1.
    10030    2    1    2    0    0  0.00000000000E+00  0.00000000000E+00  0.11752819385E+02  0.17002195169E+04  0.17001788955E+04 0.  0.
        1    1    3    3  502    0 -0.82674358201E+02  0.17941636931E+02 -0.84001324477E+03  0.84426252034E+03  0.50400001928E-02 0.  1.
       -1    1    3    3    0  502  0.82674358201E+02 -0.17941636931E+02  0.85176606415E+03  0.85595699653E+03  0.50400001928E-02 0. -1.
</event>
<event>
 5   0  0.1333546E-04  0.1698707E+04  0.7818609E-02  0.8762102E-01
        2   -1    0    0  501    0  0.00000000000E+00  0.00000000000E+00  0.13559768808E+04  0.13559768809E+04  0.25500000920E-02 0. -1.
       -2   -1    0    0    0  501  0.00000000000E+00  0.00000000000E+00 -0.53201586511E+03  0.53201586512E+03  0.25500000920E-02 0.  1.
    10030    2    1    2    0    0  0.00000000000E+00  0.00000000000E+00  0.82396101574E+03  0.18879927460E+04  0.16987068180E+04 0.  0.
        5    1    3    3  502    0 -0.57658497318E+03 -0.23169401774E+03 -0.23154267254E+03  0.66314888853E+03  0.46999998093E+01 0. -1.
       -5    1    3    3    0  502  0.57658497318E+03  0.23169401774E+03  0.10555036883E+04  0.12248438574E+04  0.46999998093E+01 0.  1.
</event>
<event>
 5   0  0.1269175E-04  0.1701809E+04  0.7818609E-02  0.8760333E-01
        2   -1    0    0  501    0  0.00000000000E+00  0.00000000000E+00  0.69183548592E+03  0.69183548592E+03  0.25500000920E-02 0. -1.
       -2   -1    0    0    0  501  0.00000000000E+00  0.00000000000E+00 -0.10465471671E+04  0.10465471671E+04  0.25500000920E-02 0.  1.
    10030    2    1    2    0    0  0.00000000000E+00  0.00000000000E+00 -0.35471168120E+03  0.17383826530E+04  0.17018089997E+04 0.  0.
        2    1    3    3  502    0  0.41537155589E+02  0.26902008768E+03 -0.10008710781E+04  0.10372271004E+04  0.25500000920E-02 0.  1.
       -2    1    3    3    0  502 -0.41537155589E+02 -0.26902008768E+03  0.64615939686E+03  0.70115555266E+03  0.25500000920E-02 0. -1.
</event>
<event>
 5   0  0.6601906E-05  0.1701882E+04  0.7818609E-02  0.8760292E-01
       -1   -1    0    0    0  501  0.00000000000E+00  0.00000000000E+00  0.87016681928E+03  0.87016681929E+03  0.50400001928E-02 0. -1.
        1   -1    0    0  501    0  0.00000000000E+00  0.00000000000E+00 -0.83213967383E+03  0.83213967385E+03  0.50400001928E-02 0.  1.
    10030    2    1    2    0    0  0.00000000000E+00  0.00000000000E+00  0.38027145444E+02  0.17023064931E+04  0.17018817035E+04 0.  0.
        1    1    3    3  502    0 -0.42644613460E+03  0.72372405346E+03  0.15494275292E+03  0.85418971428E+03  0.50400001928E-02 0.  1.
       -1    1    3    3    0  502  0.42644613460E+03 -0.72372405346E+03 -0.11691560748E+03  0.84811677886E+03  0.50400001928E-02 0. -1.
</event>
<event>
 5   0  0.1269175E-04  0.1698897E+04  0.7818609E-02  0.8761994E-01
        2   -1    0    0  501    0  0.00000000000E+00  0.00000000000E+00  0.72091502738E+03  0.72091502738E+03  0.25500000920E-02 0. -1.
       -2   -1    0    0    0  501  0.00000000000E+00  0.00000000000E+00 -0.10008980733E+04  0.10008980733E+04  0.25500000920E-02 0.  1.
    10030    2    1    2    0    0  0.00000000000E+00  0.00000000000E+00 -0.27998304595E+03  0.17218131007E+04  0.16988966560E+04 0.  0.
        2    1    3    3  502    0  0.26426119039E+03 -0.31162621546E+03 -0.89476366941E+03  0.98363961846E+03  0.25500000920E-02 0.  1.
       -2    1    3    3    0  502 -0.26426119039E+03  0.31162621546E+03  0.61478062346E+03  0.73817348225E+03  0.25500000920E-02 0. -1.
</event>
<event>
 5   0  0.6601906E-05  0.1694160E+04  0.7818609E-02  0.8764702E-01
        1   -1    0    0  501    0  0.00000000000E+00  0.00000000000E+00  0.92957519730E+03  0.92957519731E+03  0.50400001928E-02 0.  1.
       -1   -1    0    0    0  501  0.00000000000E+00  0.00000000000E+00 -0.77190600688E+03  0.77190600689E+03  0.50400001928E-02 0. -1.
    10030    2    1    2    0    0  0.00000000000E+00  0.00000000000E+00  0.15766919042E+03  0.17014812042E+04  0.16941601797E+04 0.  0.
        1    1    3    3  502    0 -0.50785361436E+03 -0.58089987251E+03  0.42989442730E+03  0.88327185744E+03  0.50400001928E-02 0. -1.
       -1    1    3    3    0  502  0.50785361436E+03  0.58089987251E+03 -0.27222523688E+03  0.81820934676E+03  0.50400001928E-02 0.  1.
</event>
<event>
 5   0  0.6834837E-05  0.1699115E+04  0.7818609E-02  0.8761869E-01
       -1   -1    0    0    0  501  0.00000000000E+00  0.00000000000E+00  0.51840033141E+03  0.51840033143E+03  0.50400001928E-02 0.  1.
        1   -1    0    0  501    0  0.00000000000E+00  0.00000000000E+00 -0.13922603004E+04  0.13922603004E+04  0.50400001928E-02 0. -1.
    10030    2    1    2    0    0  0.00000000000E+00  0.00000000000E+00 -0.87385996900E+03  0.19106606319E+04  0.16991153006E+04 0.  0.
        5    1    3    3  502    0  0.10723479308E+03 -0.67457494613E+03  0.13111162755E+03  0.69553073812E+03  0.46999998093E+01 0.  1.
       -5    1    3    3    0  502 -0.10723479308E+03  0.67457494613E+03 -0.10049715965E+04  0.12151298937E+04  0.46999998093E+01 0. -1.
</event>
<event>
 5   0  0.1285639E-04  0.1703674E+04  0.7818609E-02  0.8759272E-01
        2   -1    0    0  501    0  0.00000000000E+00  0.00000000000E+00  0.86739548962E+03  0.86739548963E+03  0.25500000920E-02 0.  1.
       -2   -1    0    0    0  501  0.00000000000E+00  0.00000000000E+00 -0.83655729750E+03  0.83655729750E+03  0.25500000920E-02 0. -1.
    10030    2    1    2    0    0  0.00000000000E+00  0.00000000000E+00  0.30838192122E+02  0.17039527871E+04  0.17036737090E+04 0.  0.
        4    1    3    3  502    0 -0.94364452733E+02 -0.68263254678E+02  0.85939373758E+03  0.86725067366E+03  0.12699999809E+01 0.  1.
       -4    1    3    3    0  502  0.94364452733E+02  0.68263254678E+02 -0.82855554546E+03  0.83670211347E+03  0.12699999809E+01 0. -1.
</event>
<event>
 5   0  0.6615842E-05  0.1700464E+04  0.7818609E-02  0.8761100E-01
        1   -1    0    0  501    0  0.00000000000E+00  0.00000000000E+00  0.93593593442E+03  0.93593593443E+03  0.50400001928E-02 0.  1.
       -1   -1    0    0    0  501  0.00000000000E+00  0.00000000000E+00 -0.77237630702E+03  0.77237630704E+03  0.50400001928E-02 0. -1.
    10030    2    1    2    0    0  0.00000000000E+00  0.00000000000E+00  0.16355962740E+03  0.17083122415E+04  0.17004643374E+04 0.  0.
        3    1    3    3  502    0  0.16297620561E+03 -0.19957856617E+03  0.89576727066E+03  0.93209004987E+03  0.10100000352E+00 0.  1.
       -3    1    3    3    0  502 -0.16297620561E+03  0.19957856617E+03 -0.73220764327E+03  0.77622219160E+03  0.10100000352E+00 0. -1.
</event>
<event>
 5   0  0.4720875E-05  0.1695865E+04  0.7818609E-02  0.8763726E-01
       -3   -1    0    0    0  501  0.00000000000E+00  0.00000000000E+00  0.22124823095E+04  0.22124823118E+04  0.10100000352E+00 0.  1.
        3   -1    0    0  501    0  0.00000000000E+00  0.00000000000E+00 -0.32496957963E+03  0.32496959533E+03  0.10100000352E+00 0. -1.
    10030    2    1    2    0    0  0.00000000000E+00  0.00000000000E+00  0.18875127299E+04  0.25374519071E+04  0.16958649344E+04 0.  0.
        3    1    3    3  502    0 -0.42836958397E+03 -0.42045190671E+03  0.47612391964E+02  0.60211897196E+03  0.10100000352E+00 0. -1.
       -3    1    3    3    0  502  0.42836958397E+03  0.42045190671E+03  0.18399003379E+04  0.19353329352E+04  0.10100000352E+00 0.  1.
</event>
<event>
 5   0  0.6601906E-05  0.1701911E+04  0.7818609E-02  0.8760275E-01
        1   -1    0    0  501    0  0.00000000000E+00  0.00000000000E+00  0.12828473410E+04  0.12828473411E+04  0.50400001928E-02 0. -1.
       -1   -1    0    0    0  501  0.00000000000E+00  0.00000000000E+00 -0.56446689924E+03  0.56446689926E+03  0.50400001928E-02 0.  1.
    10030    2    1    2    0    0  0.00000000000E+00  0.00000000000E+00  0.71838044181E+03  0.18473142403E+04  0.17019105274E+04 0.  0.
        1    1    3    3  502    0 -0.44809944574E+03 -0.60404625663E+03 -0.72889314652E+02  0.75563076012E+03  0.50400001928E-02 0. -1.
       -1    1    3    3    0  502  0.44809944574E+03  0.60404625663E+03  0.79126975646E+03  0.10916834802E+04  0.50400001928E-02 0.  1.
</event>
<event>
 5   0  0.6539134E-05  0.1703324E+04  0.7818609E-02  0.8759471E-01
        1   -1    0    0  501    0  0.00000000000E+00  0.00000000000E+00  0.12879438580E+04  0.12879438580E+04  0.50400001928E-02 0. -1.
       -1   -1    0    0    0  501  0.00000000000E+00  0.00000000000E+00 -0.56316776884E+03  0.56316776886E+03  0.50400001928E-02 0.  1.
    10030    2    1    2    0    0  0.00000000000E+00  0.00000000000E+00  0.72477608915E+03  0.18511116269E+04  0.17033243601E+04 0.  0.
        2    1    3    3  502    0  0.42498262531E+02 -0.16560300463E+03  0.12691023081E+04  0.12805667206E+04  0.25500000920E-02 0. -1.
       -2    1    3    3    0  502 -0.42498262531E+02  0.16560300463E+03 -0.54432621893E+03  0.57054490628E+03  0.25500000920E-02 0.  1.
</event>
<event>
 5   0  0.6564887E-05  0.1697123E+04  0.7818609E-02  0.8763007E-01
        1   -1    0    0  501    0  0.00000000000E+00  0.00000000000E+00  0.77149431542E+03  0.77149431544E+03  0.50400001928E-02 0. -1.
       -1   -1    0    0    0  501  0.00000000000E+00  0.00000000000E+00 -0.93332673917E+03  0.93332673918E+03  0.50400001928E-02 0.  1.
    10030    2    1    2    0    0  0.00000000000E+00  0.00000000000E+00 -0.16183242374E+03  0.17048210546E+04  0.16971225928E+04 0.  0.
        4    1    3    3  502    0  0.54463167277E+03  0.28420673978E+03 -0.66894112426E+03  0.90822958030E+03  0.12699999809E+01 0.  1.
       -4    1    3    3    0  502 -0.54463167277E+03 -0.28420673978E+03  0.50710870051E+03  0.79659147431E+03  0.12699999809E+01 0. -1.
</event>
<event>
 5   0  0.4720875E-05  0.1724891E+04  0.7818609E-02  0.8747294E-01
        3   -1    0    0  501    0  0.00000000000E+00  0.00000000000E+00  0.26457848686E+04  0.26457848705E+04  0.10100000352E+00 0. -1.
       -3   -1    0    0    0  501  0.00000000000E+00  0.00000000000E+00 -0.28113089489E+03  0.28113091303E+03  0.10100000352E+00 0.  1.
    10030    2    1    2    0    0  0.00000000000E+00  0.00000000000E+00  0.23646539737E+04  0.29269157835E+04  0.17248906019E+04 0.  0.
        2    1    3    3  502    0  0.14754679547E+03  0.74561552408E+03  0.18738913596E+04  0.20221724443E+04  0.25500000920E-02 0. -1.
       -2    1    3    3    0  502 -0.14754679547E+03 -0.74561552408E+03  0.49076261404E+03  0.90474333927E+03  0.25500000920E-02 0.  1.
</event>
<event>
 5   0  0.1255362E-04  0.1732670E+04  0.7818609E-02  0.8742948E-01
        2   -1    0    0  501    0  0.00000000000E+00  0.00000000000E+00  0.23577762744E+04  0.23577762744E+04  0.25500000920E-02 0.  1.
       -2   -1    0    0    0  501  0.00000000000E+00  0.00000000000E+00 -0.31832374704E+03  0.31832374705E+03  0.25500000920E-02 0. -1.
    10030    2    1    2    0    0  0.00000000000E+00  0.00000000000E+00  0.20394525274E+04  0.26761000215E+04  0.17326698224E+04 0.  0.
        1    1    3    3  502    0  0.75786553307E+01  0.12651682608E+03 -0.30392695966E+03  0.32929552097E+03  0.50400001928E-02 0. -1.
       -1    1    3    3    0  502 -0.75786553307E+01 -0.12651682608E+03  0.23433794871E+04  0.23468045005E+04  0.50400001928E-02 0.  1.
</event>
<event>
 5   0  0.6539134E-05  0.1702301E+04  0.7818609E-02  0.8760053E-01
        1   -1    0    0  501    0  0.00000000000E+00  0.00000000000E+00  0.92800352455E+03  0.92800352456E+03  0.50400001928E-02 0.  1.
       -1   -1    0    0    0  501  0.00000000000E+00  0.00000000000E+00 -0.78066221739E+03  0.78066221741E+03  0.50400001928E-02 0. -1.
    10030    2    1    2    0    0  0.00000000000E+00  0.00000000000E+00  0.14734130716E+03  0.17086657420E+04  0.17023011358E+04 0.  0.
        2    1    3    3  502    0  0.58853830429E+03  0.35538598807E+03  0.57732430549E+03  0.89776382744E+03  0.25500000920E-02 0.  1.
       -2    1    3    3    0  502 -0.58853830429E+03 -0.35538598807E+03 -0.42998299834E+03  0.81090191454E+03  0.25500000920E-02 0. -1.
</event>
<event>
 5   0  0.1393870E-04  0.1695900E+04  0.7818609E-02  0.8763706E-01
        2   -1    0    0  501    0  0.00000000000E+00  0.00000000000E+00  0.10212663635E+04  0.10212663635E+04  0.25500000920E-02 0.  1.
       -2   -1    0    0    0  501  0.00000000000E+00  0.00000000000E+00 -0.70404661508E+03  0.70404661509E+03  0.25500000920E-02 0. -1.
    10030    2    1    2    0    0  0.00000000000E+00  0.00000000000E+00  0.31721974837E+03  0.17253129785E+04  0.16958999101E+04 0.  0.
        3    1    3    3  502    0  0.20529036152E+03  0.28368300995E+03  0.94427251273E+03  0.10071101088E+04  0.10100000352E+00 0.  1.
       -3    1    3    3    0  502 -0.20529036152E+03 -0.28368300995E+03 -0.62705276436E+03  0.71820286978E+03  0.10100000352E+00 0. -1.
</event>
<event>
 5   0  0.6564887E-05  0.1716903E+04  0.7818609E-02  0.8751782E-01
        1   -1    0    0  501    0  0.00000000000E+00  0.00000000000E+00  0.93302183810E+03  0.93302183812E+03  0.50400001928E-02 0. -1.
       -1   -1    0    0    0  501  0.00000000000E+00  0.00000000000E+00 -0.78984134126E+03  0.78984134128E+03  0.50400001928E-02 0.  1.
    10030    2    1    2    0    0  0.00000000000E+00  0.00000000000E+00  0.14318049684E+03  0.17228631794E+04  0.17169032821E+04 0.  0.
        4    1    3    3  502    0 -0.35673125692E+01 -0.23299035285E+03  0.90067885071E+03  0.93033393750E+03  0.12699999809E+01 0. -1.
       -4    1    3    3    0  502  0.35673125692E+01  0.23299035285E+03 -0.75749835387E+03  0.79252924190E+03  0.12699999809E+01 0.  1.
</event>
<event>
 5   0  0.1255362E-04  0.1702664E+04  0.7818609E-02  0.8759846E-01
       -2   -1    0    0    0  501  0.00000000000E+00  0.00000000000E+00  0.70602515752E+03  0.70602515752E+03  0.25500000920E-02 0. -1.
        2   -1    0    0  501    0  0.00000000000E+00  0.00000000000E+00 -0.10265446755E+04  0.10265446755E+04  0.25500000920E-02 0.  1.
    10030    2    1    2    0    0  0.00000000000E+00  0.00000000000E+00 -0.32051951802E+03  0.17325698331E+04  0.17026642256E+04 0.  0.
        1    1    3    3  502    0 -0.76870590761E+03 -0.31263787875E+03  0.33117968484E+02  0.83051069558E+03  0.50400001928E-02 0. -1.
       -1    1    3    3    0  502  0.76870590761E+03  0.31263787875E+03 -0.35363748650E+03  0.90205913748E+03  0.50400001928E-02 0.  1.
</event>
<event>
 5   0  0.6615842E-05  0.1694771E+04  0.7818609E-02  0.8764352E-01
       -1   -1    0    0    0  501  0.00000000000E+00  0.00000000000E+00  0.68163615845E+03  0.68163615846E+03  0.50400001928E-02 0. -1.
        1   -1    0    0  501    0  0.00000000000E+00  0.00000000000E+00 -0.10534394777E+04  0.10534394777E+04  0.50400001928E-02 0.  1.
    10030    2    1    2    0    0  0.00000000000E+00  0.00000000000E+00 -0.37180331928E+03  0.17350756362E+04  0.16947712988E+04 0.  0.
        3    1    3    3  502    0 -0.98266241509E+02 -0.71195002187E+03 -0.64550244590E+03  0.96602407098E+03  0.10100000352E+00 0.  1.
       -3    1    3    3    0  502  0.98266241509E+02  0.71195002187E+03  0.27369912662E+03  0.76905156522E+03  0.10100000352E+00 0. -1.
</event>
<event>
 5   0  0.1285639E-04  0.1701738E+04  0.7818609E-02  0.8760374E-01
        2   -1    0    0  501    0  0.00000000000E+00  0.00000000000E+00  0.11204712852E+04  0.11204712853E+04  0.25500000920E-02 0. -1.
       -2   -1    0    0    0  501  0.00000000000E+00  0.00000000000E+00 -0.64613734077E+03  0.64613734078E+03  0.25500000920E-02 0.  1.
    10030    2    1    2    0    0  0.00000000000E+00  0.00000000000E+00  0.47433394447E+03  0.17666086260E+04  0.17017383308E+04 0.  0.
        4    1    3    3  502    0  0.32725427766E+03 -0.51784215271E+03 -0.37586980994E+03  0.71870410066E+03  0.12699999809E+01 0.  1.
       -4    1    3    3    0  502 -0.32725427766E+03  0.51784215271E+03  0.85020375442E+03  0.10479045254E+04  0.12699999809E+01 0. -1.
</event>
<event>
 5   0  0.1285639E-04  0.1706245E+04  0.7818609E-02  0.8757811E-01
        2   -1    0    0  501    0  0.00000000000E+00  0.00000000000E+00  0.26103603060E+04  0.26103603060E+04  0.25500000920E-02 0. -1.
       -2   -1    0    0    0  501  0.00000000000E+00  0.00000000000E+00 -0.27881902787E+03  0.27881902789E+03  0.25500000920E-02 0.  1.
    10030    2    1    2    0    0  0.00000000000E+00  0.00000000000E+00  0.23315412781E+04  0.28891793339E+04  0.17062451441E+04 0.  0.
        4    1    3    3  502    0  0.73122384388E+03 -0.54404295278E+02  0.19041885402E+04  0.20404861545E+04  0.12699999809E+01 0. -1.
       -4    1    3    3    0  502 -0.73122384388E+03  0.54404295278E+02  0.42735273792E+03  0.84869317938E+03  0.12699999809E+01 0.  1.
</event>
<event>
 5   0  0.1333546E-04  0.1702064E+04  0.7818609E-02  0.8760188E-01
        2   -1    0    0  501    0  0.00000000000E+00  0.00000000000E+00  0.82370875798E+03  0.82370875798E+03  0.25500000920E-02 0.  1.
       -2   -1    0    0    0  501  0.00000000000E+00  0.00000000000E+00 -0.87926204071E+03  0.87926204071E+03  0.25500000920E-02 0. -1.
    10030    2    1    2    0    0  0.00000000000E+00  0.00000000000E+00 -0.55553282733E+02  0.17029707987E+04  0.17020644447E+04 0.  0.
        5    1    3    3  502    0  0.51028258659E+03 -0.64083913063E+02  0.65062474571E+03  0.82935499988E+03  0.46999998093E+01 0.  1.
       -5    1    3    3    0  502 -0.51028258659E+03  0.64083913063E+02 -0.70617802844E+03  0.87361579882E+03  0.46999998093E+01 0. -1.
</event>
<event>
 5   0  0.1269175E-04  0.1698557E+04  0.7818609E-02  0.8762188E-01
       -2   -1    0    0    0  501  0.00000000000E+00  0.00000000000E+00  0.64208496361E+03  0.64208496361E+03  0.25500000920E-02 0.  1.
        2   -1    0    0  501    0  0.00000000000E+00  0.00000000000E+00 -0.11233310611E+04  0.11233310611E+04  0.25500000920E-02 0. -1.
    10030    2    1    2    0    0  0.00000000000E+00  0.00000000000E+00 -0.48124609749E+03  0.17654160247E+04  0.16985570152E+04 0.  0.
        2    1    3    3  502    0 -0.60140684724E+03 -0.51841573685E+03  0.72618230911E+02  0.79731955927E+03  0.25500000920E-02 0.  1.
       -2    1    3    3    0  502  0.60140684724E+03  0.51841573685E+03 -0.55386432841E+03  0.96809646545E+03  0.25500000920E-02 0. -1.
</event>
<event>
 5   0  0.1393870E-04  0.1698174E+04  0.7818609E-02  0.8762407E-01
        2   -1    0    0  501    0  0.00000000000E+00  0.00000000000E+00  0.28531131759E+04  0.28531131759E+04  0.25500000920E-02 0.  1.
       -2   -1    0    0    0  501  0.00000000000E+00  0.00000000000E+00 -0.25268835597E+03  0.25268835598E+03  0.25500000920E-02 0. -1.
    10030    2    1    2    0    0  0.00000000000E+00  0.00000000000E+00  0.26004248200E+04  0.31058015319E+04  0.16981736988E+04 0.  0.
        3    1    3    3  502    0  0.54536985507E+03 -0.52989082689E+03  0.19911808303E+04  0.21314346522E+04  0.10100000352E+00 0.  1.
       -3    1    3    3    0  502 -0.54536985507E+03  0.52989082689E+03  0.60924398965E+03  0.97436687975E+03  0.10100000352E+00 0. -1.
</event>
<event>
 5   0  0.1393870E-04  0.1696790E+04  0.7818609E-02  0.8763197E-01
       -2   -1    0    0    0  501  0.00000000000E+00  0.00000000000E+00  0.37895925395E+03  0.37895925396E+03  0.25500000920E-02 0. -1.
        2   -1    0    0  501    0  0.00000000000E+00  0.00000000000E+00 -0.18993452814E+04  0.18993452814E+04  0.25500000920E-02 0.  1.
    10030    2    1    2    0    0  0.00000000000E+00  0.00000000000E+00 -0.15203860275E+04  0.22783045354E+04  0.16967904654E+04 0.  0.
        3    1    3    3  502    0 -0.22771697955E+03  0.56343169828E+03  0.34693932478E+02  0.60869859582E+03  0.10100000352E+00 0. -1.
       -3    1    3    3    0  502  0.22771697955E+03 -0.56343169828E+03 -0.15550799600E+04  0.16696059396E+04  0.10100000352E+00 0.  1.
</event>
<event>
 5   0  0.1269175E-04  0.1702830E+04  0.7818609E-02  0.8759752E-01
        2   -1    0    0  501    0  0.00000000000E+00  0.00000000000E+00  0.10839837926E+04  0.10839837926E+04  0.25500000920E-02 0.  1.
       -2   -1    0    0    0  501  0.00000000000E+00  0.00000000000E+00 -0.66874348914E+03  0.66874348914E+03  0.25500000920E-02 0. -1.
    10030    2    1    2    0    0  0.00000000000E+00  0.00000000000E+00  0.41524030350E+03  0.17527272818E+04  0.17028295319E+04 0.  0.
        2    1    3    3  502    0 -0.61302955916E+03 -0.52816699980E+03  0.48022316180E+03  0.94094628179E+03  0.25500000920E-02 0.  1.
       -2    1    3    3    0  502  0.61302955916E+03  0.52816699980E+03 -0.64982858295E+02  0.81178100000E+03  0.25500000920E-02 0. -1.
</event>
<event>
 5   0  0.4720875E-05  0.1694206E+04  0.7818609E-02  0.8764676E-01
        3   -1    0    0  501    0  0.00000000000E+00  0.00000000000E+00  0.92083803234E+03  0.92083803788E+03  0.10100000352E+00 0.  1.
       -3   -1    0    0    0  501  0.00000000000E+00  0.00000000000E+00 -0.77927227100E+03  0.77927227754E+03  0.10100000352E+00 0. -1.
    10030    2    1    2    0    0  0.00000000000E+00  0.00000000000E+00  0.14156576134E+03  0.17001103154E+04  0.16942060736E+04 0.  0.
        5    1    3    3  502    0  0.68954152334E+03  0.49106894118E+03  0.39930857320E+02  0.84748615373E+03  0.46999998093E+01 0.  1.
       -5    1    3    3    0  502 -0.68954152334E+03 -0.49106894118E+03  0.10163490402E+03  0.85262416170E+03  0.46999998093E+01 0. -1.
</event>
<event>
 5   0  0.4720875E-05  0.1704848E+04  0.7818609E-02  0.8758604E-01
       -4   -1    0    0    0  501  0.00000000000E+00  0.00000000000E+00  0.29418841888E+03  0.29419116014E+03  0.12699999809E+01 0.  1.
        4   -1    0    0  501    0  0.00000000000E+00  0.00000000000E+00 -0.24699233118E+04  0.24699236383E+04  0.12699999809E+01 0. -1.
    10030    2    1    2    0    0  0.00000000000E+00  0.00000000000E+00 -0.21757348930E+04  0.27641147985E+04  0.17048484668E+04 0.  0.
        3    1    3    3  502    0 -0.45310094910E+03  0.23220516272E+03 -0.21963224398E+04  0.22545624803E+04  0.10100000352E+00 0. -1.
       -3    1    3    3    0  502  0.45310094910E+03 -0.23220516272E+03  0.20587546877E+02  0.50955231818E+03  0.10100000352E+00 0.  1.
</event>
<event>
 5   0  0.1393870E-04  0.1703784E+04  0.7818609E-02  0.8759209E-01
       -2   -1    0    0    0  501  0.00000000000E+00  0.00000000000E+00  0.74924024683E+03  0.74924024683E+03  0.25500000920E-02 0.  1.
        2   -1    0    0  501    0  0.00000000000E+00  0.00000000000E+00 -0.96860830196E+03  0.96860830197E+03  0.25500000920E-02 0. -1.
    10030    2    1    2    0    0  0.00000000000E+00  0.00000000000E+00 -0.21936805513E+03  0.17178485488E+04  0.17037844033E+04 0.  0.
        3    1    3    3  502    0 -0.43358443859E+03 -0.29094181868E+03  0.56898273512E+03  0.77225900468E+03  0.10100000352E+00 0.  1.
       -3    1    3    3    0  502  0.43358443859E+03  0.29094181868E+03 -0.78835079026E+03  0.94558954412E+03  0.10100000352E+00 0. -1.
</event>
<event>
 5   0  0.6564887E-05  0.1710045E+04  0.7818609E-02  0.8755656E-01
       -1   -1    0    0    0  501  0.00000000000E+00  0.00000000000E+00  0.84674244872E+03  0.84674244873E+03  0.50400001928E-02 0.  1.
        1   -1    0    0  501    0  0.00000000000E+00  0.00000000000E+00 -0.86338336531E+03  0.86338336532E+03  0.50400001928E-02 0. -1.
    10030    2    1    2    0    0  0.00000000000E+00  0.00000000000E+00 -0.16640916588E+02  0.17101258141E+04  0.17100448473E+04 0.  0.
        4    1    3    3  502    0  0.42055485454E+03  0.74121479894E+03  0.60935749892E+02  0.85438898773E+03  0.12699999809E+01 0. -1.
       -4    1    3    3    0  502 -0.42055485454E+03 -0.74121479894E+03 -0.77576666480E+02  0.85573682632E+03  0.12699999809E+01 0.  1.
</event>
<event>
 5   0  0.1255362E-04  0.1684361E+04  0.7818609E-02  0.8770335E-01
        2   -1    0    0  501    0  0.00000000000E+00  0.00000000000E+00  0.14236438744E+04  0.14236438744E+04  0.25500000920E-02 0. -1.
       -2   -1    0    0    0  501  0.00000000000E+00  0.00000000000E+00 -0.49820593222E+03  0.49820593223E+03  0.25500000920E-02 0.  1.
    10030    2    1    2    0    0  0.00000000000E+00  0.00000000000E+00  0.92543794215E+03  0.19218498066E+04  0.16843607970E+04 0.  0.
        1    1    3    3  502    0 -0.34562810684E+03 -0.36783322048E+03  0.12319467679E+04  0.13313350087E+04  0.50400001928E-02 0. -1.
       -1    1    3    3    0  502  0.34562810684E+03  0.36783322048E+03 -0.30650882574E+03  0.59051479795E+03  0.50400001928E-02 0.  1.
</event>
<event>
 5   0  0.1269175E-04  0.1703654E+04  0.7818609E-02  0.8759283E-01
        2   -1    0    0  501    0  0.00000000000E+00  0.00000000000E+00  0.11252921878E+04  0.11252921878E+04  0.25500000920E-02 0. -1.
       -2   -1    0    0    0  501  0.00000000000E+00  0.00000000000E+00 -0.64481826327E+03  0.64481826327E+03  0.25500000920E-02 0.  1.
    10030    2    1    2    0    0  0.00000000000E+00  0.00000000000E+00  0.48047392452E+03  0.17701104511E+04  0.17036536669E+04 0.  0.
        2    1    3    3  502    0 -0.70353498431E+03 -0.29616036764E+03 -0.15258037827E+03  0.77842996432E+03  0.25500000920E-02 0.  1.
       -2    1    3    3    0  502  0.70353498431E+03  0.29616036764E+03  0.63305430278E+03  0.99168048674E+03  0.25500000920E-02 0. -1.
</event>
<event>
 5   0  0.6539134E-05  0.1688775E+04  0.7818609E-02  0.8767793E-01
        1   -1    0    0  501    0  0.00000000000E+00  0.00000000000E+00  0.98811071168E+03  0.98811071169E+03  0.50400001928E-02 0.  1.
       -1   -1    0    0    0  501  0.00000000000E+00  0.00000000000E+00 -0.72156899809E+03  0.72156899811E+03  0.50400001928E-02 0. -1.
    10030    2    1    2    0    0  0.00000000000E+00  0.00000000000E+00  0.26654171358E+03  0.17096797098E+04  0.16887747704E+04 0.  0.
        2    1    3    3  502    0 -0.73391522104E+03  0.20775785022E+03  0.49996330471E+03  0.91200777522E+03  0.25500000920E-02 0.  1.
       -2    1    3    3    0  502  0.73391522104E+03 -0.20775785022E+03 -0.23342159113E+03  0.79767193458E+03  0.25500000920E-02 0. -1.
</event>
<event>
 5   0  0.1333546E-04  0.1696783E+04  0.7818609E-02  0.8763201E-01
       -2   -1    0    0    0  501  0.00000000000E+00  0.00000000000E+00  0.35539783386E+03  0.35539783387E+03  0.25500000920E-02 0. -1.
        2   -1    0    0  501    0  0.00000000000E+00  0.00000000000E+00 -0.20252459742E+04  0.20252459742E+04  0.25500000920E-02 0.  1.
    10030    2    1    2    0    0  0.00000000000E+00  0.00000000000E+00 -0.16698481404E+04  0.23806438081E+04  0.16967828763E+04 0.  0.
        5    1    3    3  502    0 -0.14143994994E+03 -0.28437128744E+03  0.26882193757E+03  0.41612451583E+03  0.46999998093E+01 0. -1.
       -5    1    3    3    0  502  0.14143994994E+03  0.28437128744E+03 -0.19386700780E+04  0.19645192923E+04  0.46999998093E+01 0.  1.
</event>
<event>
 5   0  0.6615842E-05  0.1651911E+04  0.7818609E-02  0.8789277E-01
       -1   -1    0    0    0  501  0.00000000000E+00  0.00000000000E+00  0.85936480587E+03  0.85936480589E+03  0.50400001928E-02 0. -1.
        1   -1    0    0  501    0  0.00000000000E+00  0.00000000000E+00 -0.79384484909E+03  0.79384484911E+03  0.50400001928E-02 0.  1.
    10030    2    1    2    0    0  0.00000000000E+00  0.00000000000E+00  0.65519956781E+02  0.16532096550E+04  0.16519108023E+04 0.  0.
        3    1    3    3  502    0 -0.82095724970E+03  0.44935630408E+02  0.11164008172E+03  0.82973100145E+03  0.10100000352E+00 0. -1.
       -3    1    3    3    0  502  0.82095724970E+03 -0.44935630408E+02 -0.46120124935E+02  0.82347865355E+03  0.10100000352E+00 0.  1.
</event>
<event>
 5   0  0.6615842E-05  0.1702877E+04  0.7818609E-02  0.8759725E-01
       -1   -1    0    0    0  501  0.00000000000E+00  0.00000000000E+00  0.50937641689E+03  0.50937641692E+03  0.50400001928E-02 0.  1.
        1   -1    0    0  501    0  0.00000000000E+00  0.00000000000E+00 -0.14232052239E+04  0.14232052239E+04  0.50400001928E-02 0. -1.
    10030    2    1    2    0    0  0.00000000000E+00  0.00000000000E+00 -0.91382880697E+03  0.19325816408E+04  0.17028765985E+04 0.  0.
        3    1    3    3  502    0 -0.45069776141E+03  0.60302321299E+03 -0.55442990188E+01  0.75285869656E+03  0.10100000352E+00 0. -1.
       -3    1    3    3    0  502  0.45069776141E+03 -0.60302321299E+03 -0.90828450795E+03  0.11797229442E+04  0.10100000352E+00 0.  1.
</event>
<event>
 5   0  0.6564887E-05  0.1705219E+04  0.7818609E-02  0.8758393E-01
        1   -1    0    0  501    0  0.00000000000E+00  0.00000000000E+00  0.12461728150E+04  0.12461728150E+04  0.50400001928E-02 0.  1.
       -1   -1    0    0    0  501  0.00000000000E+00  0.00000000000E+00 -0.58334024965E+03  0.58334024967E+03  0.50400001928E-02 0. -1.
    10030    2    1    2    0    0  0.00000000000E+00  0.00000000000E+00  0.66283256530E+03  0.18295130646E+04  0.17052187672E+04 0.  0.
        4    1    3    3  502    0  0.42595947257E+03 -0.21551421730E+02 -0.46066124483E+03  0.62778685191E+03  0.12699999809E+01 0. -1.
       -4    1    3    3    0  502 -0.42595947257E+03  0.21551421730E+02  0.11234938101E+04  0.12017262127E+04  0.12699999809E+01 0.  1.
</event>
<event>
 5   0  0.1285639E-04  0.1684621E+04  0.7818609E-02  0.8770184E-01
        2   -1    0    0  501    0  0.00000000000E+00  0.00000000000E+00  0.89154266310E+03  0.89154266310E+03  0.25500000920E-02 0. -1.
       -2   -1    0    0    0  501  0.00000000000E+00  0.00000000000E+00 -0.79579720773E+03  0.79579720773E+03  0.25500000920E-02 0.  1.
    10030    2    1    2    0    0  0.00000000000E+00  0.00000000000E+00  0.95745455371E+02  0.16873398708E+04  0.16846212178E+04 0.  0.
        4    1    3    3  502    0  0.59532101842E+03  0.33179716221E+02 -0.54804753962E+03  0.80985537420E+03  0.12699999809E+01 0.  1.
       -4    1    3    3    0  502 -0.59532101842E+03 -0.33179716221E+02  0.64379299499E+03  0.87748449664E+03  0.12699999809E+01 0. -1.
</event>
<event>
 5   0  0.1269175E-04  0.1693539E+04  0.7818609E-02  0.8765058E-01
       -2   -1    0    0    0  501  0.00000000000E+00  0.00000000000E+00  0.30578328410E+03  0.30578328411E+03  0.25500000920E-02 0. -1.
        2   -1    0    0  501    0  0.00000000000E+00  0.00000000000E+00 -0.23448590052E+04  0.23448590052E+04  0.25500000920E-02 0.  1.
    10030    2    1    2    0    0  0.00000000000E+00  0.00000000000E+00 -0.20390757211E+04  0.26506422893E+04  0.16935391196E+04 0.  0.
        2    1    3    3  502    0  0.45549558403E+03  0.31764667543E+03 -0.20200628681E+04  0.20950011047E+04  0.25500000920E-02 0.  1.
       -2    1    3    3    0  502 -0.45549558403E+03 -0.31764667543E+03 -0.19012853000E+02  0.55564118464E+03  0.25500000920E-02 0. -1.
</event>
<event>
 5   0  0.1285639E-04  0.1684290E+04  0.7818609E-02  0.8770375E-01
       -2   -1    0    0    0  501  0.00000000000E+00  0.00000000000E+00  0.31167954396E+03  0.31167954397E+03  0.25500000920E-02 0.  1.
        2   -1    0    0  501    0  0.00000000000E+00  0.00000000000E+00 -0.22754414144E+04  0.22754414144E+04  0.25500000920E-02 0. -1.
    10030    2    1    2    0    0  0.00000000000E+00  0.00000000000E+00 -0.19637618705E+04  0.25871209584E+04  0.16842904053E+04 0.  0.
        4    1    3    3  502    0  0.42639944048E+03 -0.72454827400E+03 -0.90631441049E+03  0.12362014835E+04  0.12699999809E+01 0.  1.
       -4    1    3    3    0  502 -0.42639944048E+03  0.72454827400E+03 -0.10574474600E+04  0.13509194749E+04  0.12699999809E+01 0. -1.
</event>
<event>
 5   0  0.1255362E-04  0.1699609E+04  0.7818609E-02  0.8761588E-01
        2   -1    0    0  501    0  0.00000000000E+00  0.00000000000E+00  0.15824016100E+04  0.15824016100E+04  0.25500000920E-02 0. -1.
       -2   -1    0    0    0  501  0.00000000000E+00  0.00000000000E+00 -0.45637429955E+03  0.45637429956E+03  0.25500000920E-02 0.  1.
    10030    2    1    2    0    0  0.00000000000E+00  0.00000000000E+00  0.11260273105E+04  0.20387759096E+04  0.16996086919E+04 0.  0.
        1    1    3    3  502    0  0.61136441726E+03  0.45883631203E+03  0.11760795025E+03  0.77338789874E+03  0.50400001928E-02 0.  1.
       -1    1    3    3    0  502 -0.61136441726E+03 -0.45883631203E+03  0.10084193602E+04  0.12653880109E+04  0.50400001928E-02 0. -1.
</event>
<event>
 5   0  0.1393870E-04  0.1701161E+04  0.7818609E-02  0.8760702E-01
        2   -1    0    0  501    0  0.00000000000E+00  0.00000000000E+00  0.11358731099E+04  0.11358731099E+04  0.25500000920E-02 0.  1.
       -2   -1    0    0    0  501  0.00000000000E+00  0.00000000000E+00 -0.63694403896E+03  0.63694403896E+03  0.25500000920E-02 0. -1.
    10030    2    1    2    0    0  0.00000000000E+00  0.00000000000E+00  0.49892907093E+03  0.17728171488E+04  0.17011614930E+04 0.  0.
        3    1    3    3  502    0 -0.45242087798E+03 -0.20684046915E+03 -0.46953893201E+03  0.68405734364E+03  0.10100000352E+00 0. -1.
       -3    1    3    3    0  502  0.45242087798E+03  0.20684046915E+03  0.96846800294E+03  0.10887598052E+04  0.10100000352E+00 0.  1.
</event>
<event>
 5   0  0.6601906E-05  0.1704221E+04  0.7818609E-02  0.8758961E-01
        1   -1    0    0  501    0  0.00000000000E+00  0.00000000000E+00  0.48164679589E+03  0.48164679591E+03  0.50400001928E-02 0.  1.
       -1   -1    0    0    0  501  0.00000000000E+00  0.00000000000E+00 -0.15075198353E+04  0.15075198353E+04  0.50400001928E-02 0. -1.
    10030    2    1    2    0    0  0.00000000000E+00  0.00000000000E+00 -0.10258730394E+04  0.19891666312E+04  0.17042207585E+04 0.  0.
        1    1    3    3  502    0  0.79525051861E+03  0.26066030581E+03 -0.70014361176E+03  0.10911316417E+04  0.50400001928E-02 0. -1.
       -1    1    3    3    0  502 -0.79525051861E+03 -0.26066030581E+03 -0.32572942765E+03  0.89803498954E+03  0.50400001928E-02 0.  1.
</event>
<event>
 5   0  0.1269175E-04  0.1699878E+04  0.7818609E-02  0.8761434E-01
        2   -1    0    0  501    0  0.00000000000E+00  0.00000000000E+00  0.97425533079E+03  0.97425533080E+03  0.25500000920E-02 0.  1.
       -2   -1    0    0    0  501  0.00000000000E+00  0.00000000000E+00 -0.74148546175E+03  0.74148546175E+03  0.25500000920E-02 0. -1.
    10030    2    1    2    0    0  0.00000000000E+00  0.00000000000E+00  0.23276986904E+03  0.17157407925E+04  0.16998778354E+04 0.  0.
        2    1    3    3  502    0 -0.23390121943E+03 -0.58205536858E+03  0.69523293397E+03  0.93640112400E+03  0.25500000920E-02 0.  1.
       -2    1    3    3    0  502  0.23390121943E+03  0.58205536858E+03 -0.46246306493E+03  0.77933966855E+03  0.25500000920E-02 0. -1.
</event>
<event>
 5   0  0.6539134E-05  0.1670927E+04  0.7818609E-02  0.8778122E-01
       -1   -1    0    0    0  501  0.00000000000E+00  0.00000000000E+00  0.37580515531E+03  0.37580515535E+03  0.50400001928E-02 0.  1.
        1   -1    0    0  501    0  0.00000000000E+00  0.00000000000E+00 -0.18573425234E+04  0.18573425234E+04  0.50400001928E-02 0. -1.
    10030    2    1    2    0    0  0.00000000000E+00  0.00000000000E+00 -0.14815373681E+04  0.22331476788E+04  0.16709265639E+04 0.  0.
        2    1    3    3  502    0  0.52152565725E+03  0.65233731147E+03 -0.71192079214E+03  0.10974352798E+04  0.25500000920E-02 0.  1.
       -2    1    3    3    0  502 -0.52152565725E+03 -0.65233731147E+03 -0.76961657595E+03  0.11357123989E+04  0.25500000920E-02 0. -1.
</event>
<event>
 5   0  0.1269175E-04  0.1680276E+04  0.7818609E-02  0.8772694E-01
        2   -1    0    0  501    0  0.00000000000E+00  0.00000000000E+00  0.84254101320E+03  0.84254101320E+03  0.25500000920E-02 0.  1.
       -2   -1    0    0    0  501  0.00000000000E+00  0.00000000000E+00 -0.83774224356E+03  0.83774224356E+03  0.25500000920E-02 0. -1.
    10030    2    1    2    0    0  0.00000000000E+00  0.00000000000E+00  0.47987696430E+01  0.16802832568E+04  0.16802764043E+04 0.  0.
        2    1    3    3  502    0 -0.54492285512E+02  0.54328934981E+02 -0.83421095762E+03  0.83775232866E+03  0.25500000920E-02 0. -1.
       -2    1    3    3    0  502  0.54492285512E+02 -0.54328934981E+02  0.83900972727E+03  0.84253092810E+03  0.25500000920E-02 0.  1.
</event>
<event>
 5   0  0.1285639E-04  0.1715903E+04  0.7818609E-02  0.8752346E-01
       -2   -1    0    0    0  501  0.00000000000E+00  0.00000000000E+00  0.65608590113E+03  0.65608590114E+03  0.25500000920E-02 0.  1.
        2   -1    0    0  501    0  0.00000000000E+00  0.00000000000E+00 -0.11219279885E+04  0.11219279885E+04  0.25500000920E-02 0. -1.
    10030    2    1    2    0    0  0.00000000000E+00  0.00000000000E+00 -0.46584208733E+03  0.17780138896E+04  0.17159034184E+04 0.  0.
        4    1    3    3  502    0 -0.17779659006E+03  0.76095655736E+02 -0.10990461763E+04  0.11159329222E+04  0.12699999809E+01 0. -1.
       -4    1    3    3    0  502  0.17779659006E+03 -0.76095655736E+02  0.63320408896E+03  0.66208096743E+03  0.12699999809E+01 0.  1.
</event>
<event>
 5   0  0.6601906E-05  0.1710953E+04  0.7818609E-02  0.8755142E-01
        1   -1    0    0  501    0  0.00000000000E+00  0.00000000000E+00  0.96094787915E+03  0.96094787916E+03  0.50400001928E-02 0.  1.
       -1   -1    0    0    0  501  0.00000000000E+00  0.00000000000E+00 -0.76158105972E+03  0.76158105974E+03  0.50400001928E-02 0. -1.
    10030    2    1    2    0    0  0.00000000000E+00  0.00000000000E+00  0.19936681943E+03  0.17225289389E+04  0.17109526050E+04 0.  0.
        1    1    3    3  502    0  0.29762586505E+03  0.92778401926E+02 -0.70235641789E+03  0.76843576517E+03  0.50400001928E-02 0. -1.
       -1    1    3    3    0  502 -0.29762586505E+03 -0.92778401926E+02  0.90172323732E+03  0.95409317373E+03  0.50400001928E-02 0.  1.
</event>
<event>
 5   0  0.6615842E-05  0.1700494E+04  0.7818609E-02  0.8761083E-01
        1   -1    0    0  501    0  0.00000000000E+00  0.00000000000E+00  0.21638400711E+04  0.21638400711E+04  0.50400001928E-02 0. -1.
       -1   -1    0    0    0  501  0.00000000000E+00  0.00000000000E+00 -0.33409125272E+03  0.33409125276E+03  0.50400001928E-02 0.  1.
    10030    2    1    2    0    0  0.00000000000E+00  0.00000000000E+00  0.18297488184E+04  0.24979313239E+04  0.17004940930E+04 0.  0.
        3    1    3    3  502    0 -0.18238679636E+03 -0.36547023283E+03 -0.18053528382E+03  0.44657186821E+03  0.10100000352E+00 0.  1.
       -3    1    3    3    0  502  0.18238679636E+03  0.36547023283E+03  0.20102841022E+04  0.20513594557E+04  0.10100000352E+00 0. -1.
</event>
<event>
 5   0  0.1393870E-04  0.1698956E+04  0.7818609E-02  0.8761960E-01
       -2   -1    0    0    0  501  0.00000000000E+00  0.00000000000E+00  0.33574704215E+03  0.33574704216E+03  0.25500000920E-02 0. -1.
        2   -1    0    0  501    0  0.00000000000E+00  0.00000000000E+00 -0.21492743111E+04  0.21492743111E+04  0.25500000920E-02 0.  1.
    10030    2    1    2    0    0  0.00000000000E+00  0.00000000000E+00 -0.18135272690E+04  0.24850213533E+04  0.16989555530E+04 0.  0.
        3    1    3    3  502    0  0.11735306017E+03  0.38732206871E+03  0.18567252244E+03  0.44526893158E+03  0.10100000352E+00 0. -1.
       -3    1    3    3    0  502 -0.11735306017E+03 -0.38732206871E+03 -0.19991997914E+04  0.20397524217E+04  0.10100000352E+00 0.  1.
</event>
<event>
 5   0  0.6834837E-05  0.1677384E+04  0.7818609E-02  0.8774369E-01
       -1   -1    0    0    0  501  0.00000000000E+00  0.00000000000E+00  0.62396690707E+03  0.62396690709E+03  0.50400001928E-02 0.  1.
        1   -1    0    0  501    0  0.00000000000E+00  0.00000000000E+00 -0.11273099380E+04  0.11273099380E+04  0.50400001928E-02 0. -1.
    10030    2    1    2    0    0  0.00000000000E+00  0.00000000000E+00 -0.50334303093E+03  0.17512768451E+04  0.16773837907E+04 0.  0.
        5    1    3    3  502    0  0.25530981233E+03 -0.72158136226E+03  0.10624097589E+03  0.77276904544E+03  0.46999998093E+01 0.  1.
       -5    1    3    3    0  502 -0.25530981233E+03  0.72158136226E+03 -0.60958400682E+03  0.97850779966E+03  0.46999998093E+01 0. -1.
</event>
<event>
 5   0  0.6564887E-05  0.1698464E+04  0.7818609E-02  0.8762241E-01
        1   -1    0    0  501    0  0.00000000000E+00  0.00000000000E+00  0.87750681138E+03  0.87750681139E+03  0.50400001928E-02 0.  1.
       -1   -1    0    0    0  501  0.00000000000E+00  0.00000000000E+00 -0.82186783296E+03  0.82186783297E+03  0.50400001928E-02 0. -1.
    10030    2    1    2    0    0  0.00000000000E+00  0.00000000000E+00  0.55638978422E+02  0.16993746444E+04  0.16984635663E+04 0.  0.
        4    1    3    3  502    0 -0.38186249553E+03  0.41257205829E+03 -0.60904244313E+03  0.82883591815E+03  0.12699999809E+01 0. -1.
       -4    1    3    3    0  502  0.38186249553E+03 -0.41257205829E+03  0.66468142155E+03  0.87053872621E+03  0.12699999809E+01 0.  1.
</event>
<event>
 5   0  0.1285639E-04  0.1710400E+04  0.7818609E-02  0.8755455E-01
        2   -1    0    0  501    0  0.00000000000E+00  0.00000000000E+00  0.84318562146E+03  0.84318562146E+03  0.25500000920E-02 0. -1.
       -2   -1    0    0    0  501  0.00000000000E+00  0.00000000000E+00 -0.86738548341E+03  0.86738548341E+03  0.25500000920E-02 0.  1.
    10030    2    1    2    0    0  0.00000000000E+00  0.00000000000E+00 -0.24199861948E+02  0.17105711049E+04  0.17103999157E+04 0.  0.
        4    1    3    3  502    0 -0.39070968366E+03  0.72580271322E+03 -0.23998611632E+03  0.85850951326E+03  0.12699999809E+01 0.  1.
       -4    1    3    3    0  502  0.39070968366E+03 -0.72580271322E+03  0.21578625438E+03  0.85206159161E+03  0.12699999809E+01 0. -1.
</event>
<event>
 5   0  0.1255362E-04  0.1703122E+04  0.7818609E-02  0.8759586E-01
       -2   -1    0    0    0  501  0.00000000000E+00  0.00000000000E+00  0.99394811218E+03  0.99394811219E+03  0.25500000920E-02 0. -1.
        2   -1    0    0  501    0  0.00000000000E+00  0.00000000000E+00 -0.72957161035E+03  0.72957161035E+03  0.25500000920E-02 0.  1.
    10030    2    1    2    0    0  0.00000000000E+00  0.00000000000E+00  0.26437650184E+03  0.17235197225E+04  0.17031222209E+04 0.  0.
        1    1    3    3  502    0  0.24688646949E+03  0.69304176738E+03 -0.30177922234E+03  0.79519212723E+03  0.50400001928E-02 0. -1.
       -1    1    3    3    0  502 -0.24688646949E+03 -0.69304176738E+03  0.56615572418E+03  0.92832759530E+03  0.50400001928E-02 0.  1.
</event>
<event>
 5   0  0.6539134E-05  0.1705362E+04  0.7818609E-02  0.8758312E-01
       -1   -1    0    0    0  501  0.00000000000E+00  0.00000000000E+00  0.47612295352E+03  0.47612295355E+03  0.50400001928E-02 0. -1.
        1   -1    0    0  501    0  0.00000000000E+00  0.00000000000E+00 -0.15270519493E+04  0.15270519493E+04  0.50400001928E-02 0.  1.
    10030    2    1    2    0    0  0.00000000000E+00  0.00000000000E+00 -0.10509289958E+04  0.20031749029E+04  0.17053615269E+04 0.  0.
        2    1    3    3  502    0  0.17994261332E+03  0.13616002465E+03  0.44041404580E+03  0.49485697746E+03  0.25500000920E-02 0. -1.
       -2    1    3    3    0  502 -0.17994261332E+03 -0.13616002465E+03 -0.14913430416E+04  0.15083179254E+04  0.25500000920E-02 0.  1.
</event>
<event>
 5   0  0.1269175E-04  0.1697256E+04  0.7818609E-02  0.8762931E-01
       -2   -1    0    0    0  501  0.00000000000E+00  0.00000000000E+00  0.68084545339E+03  0.68084545340E+03  0.25500000920E-02 0. -1.
        2   -1    0    0  501    0  0.00000000000E+00  0.00000000000E+00 -0.10577576579E+04  0.10577576579E+04  0.25500000920E-02 0.  1.
    10030    2    1    2    0    0  0.00000000000E+00  0.00000000000E+00 -0.37691220454E+03  0.17386031113E+04  0.16972560116E+04 0.  0.
        2    1    3    3  502    0 -0.33625648420E+03  0.18212018376E+03  0.58758336985E+03  0.70106376388E+03  0.25500000920E-02 0. -1.
       -2    1    3    3    0  502  0.33625648420E+03 -0.18212018376E+03 -0.96449557439E+03  0.10375393475E+04  0.25500000920E-02 0.  1.
</event>
<event>
 5   0  0.1255362E-04  0.1699900E+04  0.7818609E-02  0.8761421E-01
        2   -1    0    0  501    0  0.00000000000E+00  0.00000000000E+00  0.68083936883E+03  0.68083936883E+03  0.25500000920E-02 0. -1.
       -2   -1    0    0    0  501  0.00000000000E+00  0.00000000000E+00 -0.10610658000E+04  0.10610658000E+04  0.25500000920E-02 0.  1.
    10030    2    1    2    0    0  0.00000000000E+00  0.00000000000E+00 -0.38022643118E+03  0.17419051689E+04  0.16999004319E+04 0.  0.
        1    1    3    3  502    0 -0.43315673091E+03  0.48577389052E+03  0.37003343531E+03  0.74868268947E+03  0.50400001928E-02 0. -1.
       -1    1    3    3    0  502  0.43315673091E+03 -0.48577389052E+03 -0.75025986650E+03  0.99322247938E+03  0.50400001928E-02 0.  1.
</event>
<event>
 5   0  0.1393870E-04  0.1686326E+04  0.7818609E-02  0.8769202E-01
        2   -1    0    0  501    0  0.00000000000E+00  0.00000000000E+00  0.12339087521E+04  0.12339087521E+04  0.25500000920E-02 0. -1.
       -2   -1    0    0    0  501  0.00000000000E+00  0.00000000000E+00 -0.57615625555E+03  0.57615625556E+03  0.25500000920E-02 0.  1.
    10030    2    1    2    0    0  0.00000000000E+00  0.00000000000E+00  0.65775249658E+03  0.18100650077E+04  0.16863264765E+04 0.  0.
        3    1    3    3  502    0  0.60110418369E+02  0.67692545829E+03  0.86457972942E+03  0.10996997123E+04  0.10100000352E+00 0. -1.
       -3    1    3    3    0  502 -0.60110418369E+02 -0.67692545829E+03 -0.20682723284E+03  0.71036529541E+03  0.10100000352E+00 0.  1.
</event>
<event>
 5   0  0.1269175E-04  0.1696097E+04  0.7818609E-02  0.8763594E-01
        2   -1    0    0  501    0  0.00000000000E+00  0.00000000000E+00  0.22507131613E+04  0.22507131613E+04  0.25500000920E-02 0.  1.
       -2   -1    0    0    0  501  0.00000000000E+00  0.00000000000E+00 -0.31953706275E+03  0.31953706276E+03  0.25500000920E-02 0. -1.
    10030    2    1    2    0    0  0.00000000000E+00  0.00000000000E+00  0.19311760985E+04  0.25702502240E+04  0.16960970169E+04 0.  0.
        2    1    3    3  502    0 -0.52780782039E+03 -0.34556734023E+03  0.10676313422E+03  0.63984079953E+03  0.25500000920E-02 0. -1.
       -2    1    3    3    0  502  0.52780782039E+03  0.34556734023E+03  0.18244129643E+04  0.19304094245E+04  0.25500000920E-02 0.  1.
</event>
<event>
 5   0  0.6834837E-05  0.1694195E+04  0.7818609E-02  0.8764682E-01
       -1   -1    0    0    0  501  0.00000000000E+00  0.00000000000E+00  0.97043983591E+03  0.97043983592E+03  0.50400001928E-02 0. -1.
        1   -1    0    0  501    0  0.00000000000E+00  0.00000000000E+00 -0.73943227206E+03  0.73943227208E+03  0.50400001928E-02 0.  1.
    10030    2    1    2    0    0  0.00000000000E+00  0.00000000000E+00  0.23100756385E+03  0.17098721080E+04  0.16941954230E+04 0.  0.
        5    1    3    3  502    0  0.38760178525E+03  0.67777405018E+03 -0.21607795183E+03  0.81013861671E+03  0.46999998093E+01 0.  1.
       -5    1    3    3    0  502 -0.38760178525E+03 -0.67777405018E+03  0.44708551568E+03  0.89973349129E+03  0.46999998093E+01 0. -1.
</event>
<event>
 5   0  0.1285639E-04  0.1705953E+04  0.7818609E-02  0.8757976E-01
       -2   -1    0    0    0  501  0.00000000000E+00  0.00000000000E+00  0.17766919716E+04  0.17766919716E+04  0.25500000920E-02 0. -1.
        2   -1    0    0  501    0  0.00000000000E+00  0.00000000000E+00 -0.40950783687E+03  0.40950783687E+03  0.25500000920E-02 0.  1.
    10030    2    1    2    0    0  0.00000000000E+00  0.00000000000E+00  0.13671841347E+04  0.21861998085E+04  0.17059534414E+04 0.  0.
        4    1    3    3  502    0  0.54745242791E+02 -0.49184530128E+02  0.17726145369E+04  0.17741420656E+04  0.12699999809E+01 0. -1.
       -4    1    3    3    0  502 -0.54745242791E+02  0.49184530128E+02 -0.40543040214E+03  0.41205774290E+03  0.12699999809E+01 0.  1.
</event>
<event>
 5   0  0.6615842E-05  0.1724117E+04  0.7818609E-02  0.8747728E-01
        1   -1    0    0  501    0  0.00000000000E+00  0.00000000000E+00  0.17797857285E+04  0.17797857285E+04  0.50400001928E-02 0. -1.
       -1   -1    0    0    0  501  0.00000000000E+00  0.00000000000E+00 -0.41754745661E+03  0.41754745664E+03  0.50400001928E-02 0.  1.
    10030    2    1    2    0    0  0.00000000000E+00  0.00000000000E+00  0.13622382718E+04  0.21973331851E+04  0.17241171704E+04 0.  0.
        3    1    3    3  502    0  0.36052635402E+03  0.54650730335E+03 -0.33601566737E+02  0.65557498431E+03  0.10100000352E+00 0.  1.
       -3    1    3    3    0  502 -0.36052635402E+03 -0.54650730335E+03  0.13958398386E+04  0.15417582008E+04  0.10100000352E+00 0. -1.
</event>
<event>
 5   0  0.6615842E-05  0.1706211E+04  0.7818609E-02  0.8757830E-01
       -1   -1    0    0    0  501  0.00000000000E+00  0.00000000000E+00  0.17720904399E+04  0.17720904399E+04  0.50400001928E-02 0.  1.
        1   -1    0    0  501    0  0.00000000000E+00  0.00000000000E+00 -0.41069508221E+03  0.41069508224E+03  0.50400001928E-02 0. -1.
    10030    2    1    2    0    0  0.00000000000E+00  0.00000000000E+00  0.13613953577E+04  0.21827855221E+04  0.17062108064E+04 0.  0.
        3    1    3    3  502    0  0.25185577606E+03 -0.66913319863E+03  0.12761210772E+04  0.14627561599E+04  0.10100000352E+00 0.  1.
       -3    1    3    3    0  502 -0.25185577606E+03  0.66913319863E+03  0.85274280543E+02  0.72002936229E+03  0.10100000352E+00 0. -1.
</event>
<event>
 5   0  0.1393870E-04  0.1698418E+04  0.7818609E-02  0.8762267E-01
       -2   -1    0    0    0  501  0.00000000000E+00  0.00000000000E+00  0.68917197951E+03  0.68917197951E+03  0.25500000920E-02 0.  1.
        2   -1    0    0  501    0  0.00000000000E+00  0.00000000000E+00 -0.10464096507E+04  0.10464096507E+04  0.25500000920E-02 0. -1.
    10030    2    1    2    0    0  0.00000000000E+00  0.00000000000E+00 -0.35723767122E+03  0.17355816302E+04  0.16984183352E+04 0.  0.
        3    1    3    3  502    0  0.74300021499E+03  0.37854925579E+03 -0.14457071413E+02  0.83400112450E+03  0.10100000352E+00 0. -1.
       -3    1    3    3    0  502 -0.74300021499E+03 -0.37854925579E+03 -0.34278059981E+03  0.90158050575E+03  0.10100000352E+00 0.  1.
</event>
<event>
 5   0  0.4720875E-05  0.1720419E+04  0.7818609E-02  0.8749804E-01
       -3   -1    0    0    0  501  0.00000000000E+00  0.00000000000E+00  0.36832821855E+03  0.36832823240E+03  0.10100000352E+00 0. -1.
        3   -1    0    0  501    0  0.00000000000E+00  0.00000000000E+00 -0.20089700216E+04  0.20089700241E+04  0.10100000352E+00 0.  1.
    10030    2    1    2    0    0  0.00000000000E+00  0.00000000000E+00 -0.16406418030E+04  0.23772982565E+04  0.17204189823E+04 0.  0.
        3    1    3    3  502    0  0.17722785593E+03 -0.83722298866E+03 -0.94085047660E+03  0.12718300496E+04  0.10100000352E+00 0.  1.
       -3    1    3    3    0  502 -0.17722785593E+03  0.83722298866E+03 -0.69979132640E+03  0.11054682069E+04  0.10100000352E+00 0. -1.
</event>
<event>
 5   0  0.6615842E-05  0.1702857E+04  0.7818609E-02  0.8759737E-01
       -1   -1    0    0    0  501  0.00000000000E+00  0.00000000000E+00  0.65504027271E+03  0.65504027273E+03  0.50400001928E-02 0. -1.
        1   -1    0    0  501    0  0.00000000000E+00  0.00000000000E+00 -0.11066958161E+04  0.11066958161E+04  0.50400001928E-02 0.  1.
    10030    2    1    2    0    0  0.00000000000E+00  0.00000000000E+00 -0.45165554337E+03  0.17617360888E+04  0.17028568104E+04 0.  0.
        3    1    3    3  502    0 -0.77321248441E+03 -0.30470105641E+03 -0.41723856282E+03  0.92993994878E+03  0.10100000352E+00 0. -1.
       -3    1    3    3    0  502  0.77321248441E+03  0.30470105641E+03 -0.34416980545E+02  0.83179614004E+03  0.10100000352E+00 0.  1.
</event>
<event>
 5   0  0.6564887E-05  0.1700700E+04  0.7818609E-02  0.8760965E-01
        1   -1    0    0  501    0  0.00000000000E+00  0.00000000000E+00  0.13957699016E+04  0.13957699016E+04  0.50400001928E-02 0.  1.
       -1   -1    0    0    0  501  0.00000000000E+00  0.00000000000E+00 -0.51806174601E+03  0.51806174603E+03  0.50400001928E-02 0. -1.
    10030    2    1    2    0    0  0.00000000000E+00  0.00000000000E+00  0.87770815563E+03  0.19138316477E+04  0.17006998469E+04 0.  0.
        4    1    3    3  502    0 -0.21446758461E+03  0.80589715457E+03  0.25181108796E+03  0.87113546910E+03  0.12699999809E+01 0. -1.
       -4    1    3    3    0  502  0.21446758461E+03 -0.80589715457E+03  0.62589706767E+03  0.10426961786E+04  0.12699999809E+01 0.  1.
</event>
<event>
 5   0  0.6834837E-05  0.1698856E+04  0.7818609E-02  0.8762017E-01
       -1   -1    0    0    0  501  0.00000000000E+00  0.00000000000E+00  0.12296216210E+04  0.12296216210E+04  0.50400001928E-02 0.  1.
        1   -1    0    0  501    0  0.00000000000E+00  0.00000000000E+00 -0.58678872502E+03  0.58678872504E+03  0.50400001928E-02 0. -1.
    10030    2    1    2    0    0  0.00000000000E+00  0.00000000000E+00  0.64283289600E+03  0.18164103461E+04  0.16988562073E+04 0.  0.
        5    1    3    3  502    0  0.26591130955E+03 -0.75196177381E+03  0.90525477008E+01  0.79765868167E+03  0.46999998093E+01 0. -1.
       -5    1    3    3    0  502 -0.26591130955E+03  0.75196177381E+03  0.63378034830E+03  0.10187516644E+04  0.46999998093E+01 0.  1.
</event>
<event>
 5   0  0.6564887E-05  0.1717565E+04  0.7818609E-02  0.8751409E-01
        1   -1    0    0  501    0  0.00000000000E+00  0.00000000000E+00  0.99144200221E+03  0.99144200222E+03  0.50400001928E-02 0.  1.
       -1   -1    0    0    0  501  0.00000000000E+00  0.00000000000E+00 -0.74387370460E+03  0.74387370462E+03  0.50400001928E-02 0. -1.
    10030    2    1    2    0    0  0.00000000000E+00  0.00000000000E+00  0.24756829761E+03  0.17353157068E+04  0.17175652944E+04 0.  0.
        4    1    3    3  502    0 -0.69966376423E+02 -0.38349204953E+03  0.89690114874E+03  0.97795435957E+03  0.12699999809E+01 0.  1.
       -4    1    3    3    0  502  0.69966376423E+02  0.38349204953E+03 -0.64933285113E+03  0.75736134727E+03  0.12699999809E+01 0. -1.
</event>
<event>
 5   0  0.1393870E-04  0.1681441E+04  0.7818609E-02  0.8772021E-01
       -2   -1    0    0    0  501  0.00000000000E+00  0.00000000000E+00  0.13045980553E+04  0.13045980553E+04  0.25500000920E-02 0. -1.
        2   -1    0    0  501    0  0.00000000000E+00  0.00000000000E+00 -0.54178446599E+03  0.54178446600E+03  0.25500000920E-02 0.  1.
    10030    2    1    2    0    0  0.00000000000E+00  0.00000000000E+00  0.76281358935E+03  0.18463825213E+04  0.16814410019E+04 0.  0.
        3    1    3    3  502    0  0.25131860587E+02 -0.54928007649E+03 -0.31696002994E+03  0.63466832568E+03  0.10100000352E+00 0.  1.
       -3    1    3    3    0  502 -0.25131860587E+02  0.54928007649E+03  0.10797736193E+04  0.12117141957E+04  0.10100000352E+00 0. -1.
</event>
<event>
 5   0  0.6601906E-05  0.1701918E+04  0.7818609E-02  0.8760271E-01
       -1   -1    0    0    0  501  0.00000000000E+00  0.00000000000E+00  0.93367337220E+03  0.93367337221E+03  0.50400001928E-02 0. -1.
        1   -1    0    0  501    0  0.00000000000E+00  0.00000000000E+00 -0.77557228285E+03  0.77557228287E+03  0.50400001928E-02 0.  1.
    10030    2    1    2    0    0  0.00000000000E+00  0.00000000000E+00  0.15810108935E+03  0.17092456551E+04  0.17019179636E+04 0.  0.
        1    1    3    3  502    0  0.37520871402E+03  0.73064044531E+03 -0.14442526700E+03  0.83395185543E+03  0.50400001928E-02 0.  1.
       -1    1    3    3    0  502 -0.37520871402E+03 -0.73064044531E+03  0.30252635635E+03  0.87529379965E+03  0.50400001928E-02 0. -1.
</event>
<event>
 5   0  0.1393870E-04  0.1706878E+04  0.7818609E-02  0.8757451E-01
        2   -1    0    0  501    0  0.00000000000E+00  0.00000000000E+00  0.92931902532E+03  0.92931902532E+03  0.25500000920E-02 0. -1.
       -2   -1    0    0    0  501  0.00000000000E+00  0.00000000000E+00 -0.78375503336E+03  0.78375503337E+03  0.25500000920E-02 0.  1.
    10030    2    1    2    0    0  0.00000000000E+00  0.00000000000E+00  0.14556399195E+03  0.17130740587E+04  0.17068783948E+04 0.  0.
        3    1    3    3  502    0  0.43364282213E+03 -0.58711981583E+03  0.51665727233E+03  0.89425417113E+03  0.10100000352E+00 0. -1.
       -3    1    3    3    0  502 -0.43364282213E+03  0.58711981583E+03 -0.37109328038E+03  0.81881988756E+03  0.10100000352E+00 0.  1.
</event>
<event>
 5   0  0.1285639E-04  0.1702089E+04  0.7818609E-02  0.8760174E-01
       -2   -1    0    0    0  501  0.00000000000E+00  0.00000000000E+00  0.87356694499E+03  0.87356694500E+03  0.25500000920E-02 0. -1.
        2   -1    0    0  501    0  0.00000000000E+00  0.00000000000E+00 -0.82910306310E+03  0.82910306310E+03  0.25500000920E-02 0.  1.
    10030    2    1    2    0    0  0.00000000000E+00  0.00000000000E+00  0.44463881897E+02  0.17026700081E+04  0.17020893395E+04 0.  0.
        4    1    3    3  502    0 -0.38640025328E+03 -0.28489218752E+03  0.72518548495E+03  0.86969208041E+03  0.12699999809E+01 0. -1.
       -4    1    3    3    0  502  0.38640025328E+03  0.28489218752E+03 -0.68072160306E+03  0.83297792769E+03  0.12699999809E+01 0.  1.
</event>
<event>
 5   0  0.6564887E-05  0.1700524E+04  0.7818609E-02  0.8761065E-01
        1   -1    0    0  501    0  0.00000000000E+00  0.00000000000E+00  0.61009842571E+03  0.61009842574E+03  0.50400001928E-02 0. -1.
       -1   -1    0    0    0  501  0.00000000000E+00  0.00000000000E+00 -0.11849656373E+04  0.11849656373E+04  0.50400001928E-02 0.  1.
    10030    2    1    2    0    0  0.00000000000E+00  0.00000000000E+00 -0.57486721154E+03  0.17950640630E+04  0.17005242366E+04 0.  0.
        4    1    3    3  502    0  0.58982297622E+03 -0.52260828842E+03 -0.62445352834E+03  0.10054622759E+04  0.12699999809E+01 0. -1.
       -4    1    3    3    0  502 -0.58982297622E+03  0.52260828842E+03  0.49586316800E+02  0.78960178705E+03  0.12699999809E+01 0.  1.
</event>
<event>
 5   0  0.6601906E-05  0.1686767E+04  0.7818609E-02  0.8768948E-01
       -1   -1    0    0    0  501  0.00000000000E+00  0.00000000000E+00  0.78804800681E+03  0.78804800683E+03  0.50400001928E-02 0.  1.
        1   -1    0    0  501    0  0.00000000000E+00  0.00000000000E+00 -0.90260417732E+03  0.90260417733E+03  0.50400001928E-02 0. -1.
    10030    2    1    2    0    0  0.00000000000E+00  0.00000000000E+00 -0.11455617050E+03  0.16906521842E+04  0.16867666382E+04 0.  0.
        1    1    3    3  502    0  0.84282912921E+03 -0.28146188310E+02 -0.69233424614E+02  0.84613616875E+03  0.50400001928E-02 0.  1.
       -1    1    3    3    0  502 -0.84282912921E+03  0.28146188310E+02 -0.45322745890E+02  0.84451601541E+03  0.50400001928E-02 0. -1.
</event>
<event>
 5   0  0.1269175E-04  0.1712626E+04  0.7818609E-02  0.8754196E-01
       -2   -1    0    0    0  501  0.00000000000E+00  0.00000000000E+00  0.12356762613E+04  0.12356762613E+04  0.25500000920E-02 0. -1.
        2   -1    0    0  501    0  0.00000000000E+00  0.00000000000E+00 -0.59341786169E+03  0.59341786169E+03  0.25500000920E-02 0.  1.
    10030    2    1    2    0    0  0.00000000000E+00  0.00000000000E+00  0.64225839965E+03  0.18290941230E+04  0.17126264797E+04 0.  0.
        2    1    3    3  502    0 -0.54326443549E+03  0.63583253646E+03  0.12462463483E+03  0.84554749181E+03  0.25500000920E-02 0.  1.
       -2    1    3    3    0  502  0.54326443549E+03 -0.63583253646E+03  0.51763376482E+03  0.98354663122E+03  0.25500000920E-02 0. -1.
</event>
<event>
 5   0  0.1393870E-04  0.1709412E+04  0.7818609E-02  0.8756014E-01
       -2   -1    0    0    0  501  0.00000000000E+00  0.00000000000E+00  0.12809729590E+04  0.12809729590E+04  0.25500000920E-02 0.  1.
        2   -1    0    0  501    0  0.00000000000E+00  0.00000000000E+00 -0.57028727733E+03  0.57028727734E+03  0.25500000920E-02 0. -1.
    10030    2    1    2    0    0  0.00000000000E+00  0.00000000000E+00  0.71068568169E+03  0.18512602364E+04  0.17094122746E+04 0.  0.
        3    1    3    3  502    0 -0.49434568242E+03  0.42304104458E+03 -0.24488752857E+03  0.69520593422E+03  0.10100000352E+00 0. -1.
       -3    1    3    3    0  502  0.49434568242E+03 -0.42304104458E+03  0.95557321026E+03  0.11560543021E+04  0.10100000352E+00 0.  1.
</event>
<event>
 5   0  0.6564887E-05  0.1699287E+04  0.7818609E-02  0.8761771E-01
        1   -1    0    0  501    0  0.00000000000E+00  0.00000000000E+00  0.13782204258E+04  0.13782204258E+04  0.50400001928E-02 0. -1.
       -1   -1    0    0    0  501  0.00000000000E+00  0.00000000000E+00 -0.52378719542E+03  0.52378719544E+03  0.50400001928E-02 0.  1.
    10030    2    1    2    0    0  0.00000000000E+00  0.00000000000E+00  0.85443323039E+03  0.19020076213E+04  0.16992871582E+04 0.  0.
        4    1    3    3  502    0 -0.27653584883E+03 -0.47255785708E+03  0.11544236799E+04  0.12776848789E+04  0.12699999809E+01 0. -1.
       -4    1    3    3    0  502  0.27653584883E+03  0.47255785708E+03 -0.29999044954E+03  0.62432274241E+03  0.12699999809E+01 0.  1.
</event>
<event>
 5   0  0.6539134E-05  0.1695362E+04  0.7818609E-02  0.8764014E-01
       -1   -1    0    0    0  501  0.00000000000E+00  0.00000000000E+00  0.97227121322E+03  0.97227121323E+03  0.50400001928E-02 0.  1.
        1   -1    0    0  501    0  0.00000000000E+00  0.00000000000E+00 -0.73905663252E+03  0.73905663253E+03  0.50400001928E-02 0. -1.
    10030    2    1    2    0    0  0.00000000000E+00  0.00000000000E+00  0.23321458070E+03  0.17113278458E+04  0.16953624849E+04 0.  0.
        2    1    3    3  502    0 -0.19163573829E+03 -0.79674728354E+03 -0.10230592654E+03  0.82583109207E+03  0.25500000920E-02 0.  1.
       -2    1    3    3    0  502  0.19163573829E+03  0.79674728354E+03  0.33552050724E+03  0.88549675370E+03  0.25500000920E-02 0. -1.
</event>
<event>
 5   0  0.6601906E-05  0.1696547E+04  0.7818609E-02  0.8763336E-01
       -1   -1    0    0    0  501  0.00000000000E+00  0.00000000000E+00  0.10891542441E+04  0.10891542442E+04  0.50400001928E-02 0.  1.
        1   -1    0    0  501    0  0.00000000000E+00  0.00000000000E+00 -0.66066693317E+03  0.66066693319E+03  0.50400001928E-02 0. -1.
    10030    2    1    2    0    0  0.00000000000E+00  0.00000000000E+00  0.42848731097E+03  0.17498211773E+04  0.16965473106E+04 0.  0.
        1    1    3    3  502    0 -0.19309609902E+03 -0.82599896136E+03  0.21136188777E+03  0.87420491605E+03  0.50400001928E-02 0. -1.
       -1    1    3    3    0  502  0.19309609902E+03  0.82599896136E+03  0.21712542320E+03  0.87561626130E+03  0.50400001928E-02 0.  1.
</event>
<event>
 5   0  0.1269175E-04  0.1702948E+04  0.7818609E-02  0.8759685E-01
       -2   -1    0    0    0  501  0.00000000000E+00  0.00000000000E+00  0.10386553513E+04  0.10386553513E+04  0.25500000920E-02 0.  1.
        2   -1    0    0  501    0  0.00000000000E+00  0.00000000000E+00 -0.69802534714E+03  0.69802534714E+03  0.25500000920E-02 0. -1.
    10030    2    1    2    0    0  0.00000000000E+00  0.00000000000E+00  0.34063000418E+03  0.17366806985E+04  0.17029477528E+04 0.  0.
        2    1    3    3  502    0 -0.84761529861E+02  0.74705673115E+03 -0.23726343567E+03  0.78839851244E+03  0.25500000920E-02 0. -1.
       -2    1    3    3    0  502  0.84761529861E+02 -0.74705673115E+03  0.57789343985E+03  0.94828218602E+03  0.25500000920E-02 0.  1.
</event>
<event>
 5   0  0.6834837E-05  0.1691903E+04  0.7818609E-02  0.8765996E-01
       -1   -1    0    0    0  501  0.00000000000E+00  0.00000000000E+00  0.56731182420E+03  0.56731182422E+03  0.50400001928E-02 0. -1.
        1   -1    0    0  501    0  0.00000000000E+00  0.00000000000E+00 -0.12614474940E+04  0.12614474940E+04  0.50400001928E-02 0.  1.
    10030    2    1    2    0    0  0.00000000000E+00  0.00000000000E+00 -0.69413566977E+03  0.18287593182E+04  0.16919031639E+04 0.  0.
        5    1    3    3  502    0  0.39385089026E+03  0.79504398820E+02  0.45757572751E+03  0.60896396412E+03  0.46999998093E+01 0. -1.
       -5    1    3    3    0  502 -0.39385089026E+03 -0.79504398820E+02 -0.11517113973E+04  0.12197953541E+04  0.46999998093E+01 0.  1.
</event>
<event>
 5   0  0.6615842E-05  0.1700443E+04  0.7818609E-02  0.8761112E-01
        1   -1    0    0  501    0  0.00000000000E+00  0.00000000000E+00  0.11590783952E+04  0.11590783952E+04  0.50400001928E-02 0.  1.
       -1   -1    0    0    0  501  0.00000000000E+00  0.00000000000E+00 -0.62366511686E+03  0.62366511689E+03  0.50400001928E-02 0. -1.
    10030    2    1    2    0    0  0.00000000000E+00  0.00000000000E+00  0.53541327830E+03  0.17827435121E+04  0.17004431926E+04 0.  0.
        3    1    3    3  502    0  0.66832556813E+03  0.12128199701E+03 -0.26842264453E+03  0.73035547106E+03  0.10100000352E+00 0. -1.
       -3    1    3    3    0  502 -0.66832556813E+03 -0.12128199701E+03  0.80383592283E+03  0.10523880410E+04  0.10100000352E+00 0.  1.
</event>
<event>
 5   0  0.1393870E-04  0.1703897E+04  0.7818609E-02  0.8759145E-01
       -2   -1    0    0    0  501  0.00000000000E+00  0.00000000000E+00  0.50488871582E+03  0.50488871583E+03  0.25500000920E-02 0.  1.
        2   -1    0    0  501    0  0.00000000000E+00  0.00000000000E+00 -0.14375767518E+04  0.14375767518E+04  0.25500000920E-02 0. -1.
    10030    2    1    2    0    0  0.00000000000E+00  0.00000000000E+00 -0.93268803597E+03  0.19424654676E+04  0.17038970393E+04 0.  0.
        3    1    3    3  502    0 -0.28537661470E+01  0.31637717054E+03  0.43543008667E+03  0.53823975011E+03  0.10100000352E+00 0.  1.
       -3    1    3    3    0  502  0.28537661470E+01 -0.31637717054E+03 -0.13681181226E+04  0.14042257175E+04  0.10100000352E+00 0. -1.
</event>
<event>
 5   0  0.1393870E-04  0.1698637E+04  0.7818609E-02  0.8762142E-01
        2   -1    0    0  501    0  0.00000000000E+00  0.00000000000E+00  0.22006403955E+04  0.22006403955E+04  0.25500000920E-02 0. -1.
       -2   -1    0    0    0  501  0.00000000000E+00  0.00000000000E+00 -0.32778742154E+03  0.32778742155E+03  0.25500000920E-02 0.  1.
    10030    2    1    2    0    0  0.00000000000E+00  0.00000000000E+00  0.18728529740E+04  0.25284278171E+04  0.16986373845E+04 0.  0.
        3    1    3    3  502    0 -0.37579850294E+03 -0.50572348808E+03  0.88682903435E+02  0.63627464885E+03  0.10100000352E+00 0.  1.
       -3    1    3    3    0  502  0.37579850294E+03  0.50572348808E+03  0.17841700705E+04  0.18921531682E+04  0.10100000352E+00 0. -1.
</event>
<event>
 5   0  0.6601906E-05  0.1696155E+04  0.7818609E-02  0.8763561E-01
       -1   -1    0    0    0  501  0.00000000000E+00  0.00000000000E+00  0.95390024161E+03  0.95390024162E+03  0.50400001928E-02 0.  1.
        1   -1    0    0  501    0  0.00000000000E+00  0.00000000000E+00 -0.75399403660E+03  0.75399403661E+03  0.50400001928E-02 0. -1.
    10030    2    1    2    0    0  0.00000000000E+00  0.00000000000E+00  0.19990620501E+03  0.17078942782E+04  0.16961545846E+04 0.  0.
        1    1    3    3  502    0  0.57492929539E+03  0.48143910069E+02  0.72584489185E+03  0.92720673952E+03  0.50400001928E-02 0.  1.
       -1    1    3    3    0  502 -0.57492929539E+03 -0.48143910069E+02 -0.52593868683E+03  0.78068753871E+03  0.50400001928E-02 0. -1.
</event>
<event>
 5   0  0.1255362E-04  0.1701982E+04  0.7818609E-02  0.8760235E-01
        2   -1    0    0  501    0  0.00000000000E+00  0.00000000000E+00  0.79599964062E+03  0.79599964062E+03  0.25500000920E-02 0. -1.
       -2   -1    0    0    0  501  0.00000000000E+00  0.00000000000E+00 -0.90978162698E+03  0.90978162698E+03  0.25500000920E-02 0.  1.
    10030    2    1    2    0    0  0.00000000000E+00  0.00000000000E+00 -0.11378198636E+03  0.17057812676E+04  0.17019821951E+04 0.  0.
        1    1    3    3  502    0 -0.59809281401E+03  0.37284969762E+03  0.42109487577E+03  0.82100718974E+03  0.50400001928E-02 0. -1.
       -1    1    3    3    0  502  0.59809281401E+03 -0.37284969762E+03 -0.53487686213E+03  0.88477407786E+03  0.50400001928E-02 0.  1.
</event>
<event>
 5   0  0.6539134E-05  0.1700767E+04  0.7818609E-02  0.8760927E-01
        1   -1    0    0  501    0  0.00000000000E+00  0.00000000000E+00  0.35895402778E+03  0.35895402782E+03  0.50400001928E-02 0.  1.
       -1   -1    0    0    0  501  0.00000000000E+00  0.00000000000E+00 -0.20146085196E+04  0.20146085196E+04  0.50400001928E-02 0. -1.
    10030    2    1    2    0    0  0.00000000000E+00  0.00000000000E+00 -0.16556544918E+04  0.23735625474E+04  0.17007667007E+04 0.  0.
        2    1    3    3  502    0 -0.23630103190E+03  0.74316662864E+03 -0.13011277915E+04  0.15169272710E+04  0.25500000920E-02 0. -1.
       -2    1    3    3    0  502  0.23630103190E+03 -0.74316662864E+03 -0.35452670031E+03  0.85663527644E+03  0.25500000920E-02 0.  1.
</event>
<event>
 5   0  0.6601906E-05  0.1697822E+04  0.7818609E-02  0.8762607E-01
        1   -1    0    0  501    0  0.00000000000E+00  0.00000000000E+00  0.95774520538E+03  0.95774520539E+03  0.50400001928E-02 0.  1.
       -1   -1    0    0    0  501  0.00000000000E+00  0.00000000000E+00 -0.75244458782E+03  0.75244458784E+03  0.50400001928E-02 0. -1.
    10030    2    1    2    0    0  0.00000000000E+00  0.00000000000E+00  0.20530061756E+03  0.17101897932E+04  0.16978223657E+04 0.  0.
        1    1    3    3  502    0  0.58212416472E+03 -0.13600017596E+03  0.70977256640E+03  0.92797720179E+03  0.50400001928E-02 0.  1.
       -1    1    3    3    0  502 -0.58212416472E+03  0.13600017596E+03 -0.50447194884E+03  0.78221259144E+03  0.50400001928E-02 0. -1.
</event>
<event>
 5   0  0.4720875E-05  0.1709827E+04  0.7818609E-02  0.8755779E-01
        4   -1    0    0  501    0  0.00000000000E+00  0.00000000000E+00  0.88441234865E+03  0.88441326049E+03  0.12699999809E+01 0. -1.
       -4   -1    0    0    0  501  0.00000000000E+00  0.00000000000E+00 -0.82639684594E+03  0.82639782181E+03  0.12699999809E+01 0.  1.
    10030    2    1    2    0    0  0.00000000000E+00  0.00000000000E+00  0.58015502702E+02  0.17108110823E+04  0.17098271143E+04 0.  0.
        5    1    3    3  502    0  0.93855422561E+02 -0.64087776352E+03 -0.52927566510E+03  0.83647353084E+03  0.46999998093E+01 0.  1.
       -5    1    3    3    0  502 -0.93855422561E+02  0.64087776352E+03  0.58729116781E+03  0.87433755146E+03  0.46999998093E+01 0. -1.
</event>
<event>
 5   0  0.1255362E-04  0.1699174E+04  0.7818609E-02  0.8761836E-01
        2   -1    0    0  501    0  0.00000000000E+00  0.00000000000E+00  0.73941143281E+03  0.73941143282E+03  0.25500000920E-02 0. -1.
       -2   -1    0    0    0  501  0.00000000000E+00  0.00000000000E+00 -0.97617905239E+03  0.97617905239E+03  0.25500000920E-02 0.  1.
    10030    2    1    2    0    0  0.00000000000E+00  0.00000000000E+00 -0.23676761958E+03  0.17155904852E+04  0.16991738602E+04 0.  0.
        1    1    3    3  502    0  0.12597989671E+03  0.84019454610E+03 -0.11800317319E+03  0.85774271118E+03  0.50400001928E-02 0. -1.
       -1    1    3    3    0  502 -0.12597989671E+03 -0.84019454610E+03 -0.11876444639E+03  0.85784777404E+03  0.50400001928E-02 0.  1.
</event>
<event>
 5   0  0.6564887E-05  0.1700470E+04  0.7818609E-02  0.8761096E-01
       -1   -1    0    0    0  501  0.00000000000E+00  0.00000000000E+00  0.73561544538E+03  0.73561544540E+03  0.50400001928E-02 0. -1.
        1   -1    0    0  501    0  0.00000000000E+00  0.00000000000E+00 -0.98271378468E+03  0.98271378469E+03  0.50400001928E-02 0.  1.
    10030    2    1    2    0    0  0.00000000000E+00  0.00000000000E+00 -0.24709833930E+03  0.17183292301E+04  0.17004698626E+04 0.  0.
        4    1    3    3  502    0  0.60909786130E+03  0.22389603655E+03  0.43155458440E+03  0.77933985657E+03  0.12699999809E+01 0. -1.
       -4    1    3    3    0  502 -0.60909786130E+03 -0.22389603655E+03 -0.67865292370E+03  0.93898937352E+03  0.12699999809E+01 0.  1.
</event>
<event>
 5   0  0.6539134E-05  0.1731454E+04  0.7818609E-02  0.8743626E-01
        1   -1    0    0  501    0  0.00000000000E+00  0.00000000000E+00  0.16627964229E+04  0.16627964229E+04  0.50400001928E-02 0.  1.
       -1   -1    0    0    0  501  0.00000000000E+00  0.00000000000E+00 -0.45073660838E+03  0.45073660841E+03  0.50400001928E-02 0. -1.
    10030    2    1    2    0    0  0.00000000000E+00  0.00000000000E+00  0.12120598145E+04  0.21135330313E+04  0.17314539787E+04 0.  0.
        2    1    3    3  502    0 -0.61869685113E+03 -0.60494307338E+03  0.63926496164E+03  0.10758260114E+04  0.25500000920E-02 0.  1.
       -2    1    3    3    0  502  0.61869685113E+03  0.60494307338E+03  0.57279485284E+03  0.10377070199E+04  0.25500000920E-02 0. -1.
</event>
<event>
 5   0  0.1269175E-04  0.1687570E+04  0.7818609E-02  0.8768485E-01
       -2   -1    0    0    0  501  0.00000000000E+00  0.00000000000E+00  0.60140897222E+03  0.60140897222E+03  0.25500000920E-02 0. -1.
        2   -1    0    0  501    0  0.00000000000E+00  0.00000000000E+00 -0.11838423561E+04  0.11838423561E+04  0.25500000920E-02 0.  1.
    10030    2    1    2    0    0  0.00000000000E+00  0.00000000000E+00 -0.58243338389E+03  0.17852513283E+04  0.16875703418E+04 0.  0.
        2    1    3    3  502    0 -0.33198635912E+03 -0.32200294809E+03 -0.10378094870E+04  0.11361995303E+04  0.25500000920E-02 0.  1.
       -2    1    3    3    0  502  0.33198635912E+03  0.32200294809E+03  0.45537610315E+03  0.64905179805E+03  0.25500000920E-02 0. -1.
</event>
<event>
 5   0  0.6615842E-05  0.1700262E+04  0.7818609E-02  0.8761215E-01
        1   -1    0    0  501    0  0.00000000000E+00  0.00000000000E+00  0.14862961480E+04  0.14862961480E+04  0.50400001928E-02 0. -1.
       -1   -1    0    0    0  501  0.00000000000E+00  0.00000000000E+00 -0.48625768683E+03  0.48625768686E+03  0.50400001928E-02 0.  1.
    10030    2    1    2    0    0  0.00000000000E+00  0.00000000000E+00  0.10000384612E+04  0.19725538349E+04  0.17002622467E+04 0.  0.
        3    1    3    3  502    0  0.39379647730E+03  0.41853752240E+02 -0.37271312838E+03  0.54382211096E+03  0.10100000352E+00 0.  1.
       -3    1    3    3    0  502 -0.39379647730E+03 -0.41853752240E+02  0.13727515896E+04  0.14287317239E+04  0.10100000352E+00 0. -1.
</event>
<event>
 5   0  0.1333546E-04  0.1693135E+04  0.7818609E-02  0.8765289E-01
        2   -1    0    0  501    0  0.00000000000E+00  0.00000000000E+00  0.87110737795E+03  0.87110737795E+03  0.25500000920E-02 0.  1.
       -2   -1    0    0    0  501  0.00000000000E+00  0.00000000000E+00 -0.82271936294E+03  0.82271936295E+03  0.25500000920E-02 0. -1.
    10030    2    1    2    0    0  0.00000000000E+00  0.00000000000E+00  0.48388015006E+02  0.16938267409E+04  0.16931354430E+04 0.  0.
        5    1    3    3  502    0  0.36045045403E+03  0.66796683239E+03  0.39924786174E+03  0.85762763720E+03  0.46999998093E+01 0.  1.
       -5    1    3    3    0  502 -0.36045045403E+03 -0.66796683239E+03 -0.35085984673E+03  0.83619910370E+03  0.46999998093E+01 0. -1.
</event>
<event>
 5   0  0.6615842E-05  0.1700965E+04  0.7818609E-02  0.8760814E-01
        1   -1    0    0  501    0  0.00000000000E+00  0.00000000000E+00  0.14977681197E+04  0.14977681197E+04  0.50400001928E-02 0. -1.
       -1   -1    0    0    0  501  0.00000000000E+00  0.00000000000E+00 -0.48293228220E+03  0.48293228223E+03  0.50400001928E-02 0.  1.
    10030    2    1    2    0    0  0.00000000000E+00  0.00000000000E+00  0.10148358375E+04  0.19807004019E+04  0.17009651099E+04 0.  0.
        3    1    3    3  502    0  0.70813555397E+02  0.58269241514E+03  0.12240798842E+04  0.13575406378E+04  0.10100000352E+00 0. -1.
       -3    1    3    3    0  502 -0.70813555397E+02 -0.58269241514E+03 -0.20924404671E+03  0.62315976409E+03  0.10100000352E+00 0.  1.
</event>
<event>
 5   0  0.1269175E-04  0.1702261E+04  0.7818609E-02  0.8760076E-01
        2   -1    0    0  501    0  0.00000000000E+00  0.00000000000E+00  0.10982480334E+04  0.10982480334E+04  0.25500000920E-02 0. -1.
       -2   -1    0    0    0  501  0.00000000000E+00  0.00000000000E+00 -0.65961689646E+03  0.65961689647E+03  0.25500000920E-02 0.  1.
    10030    2    1    2    0    0  0.00000000000E+00  0.00000000000E+00  0.43863113694E+03  0.17578649299E+04  0.17022608018E+04 0.  0.
        2    1    3    3  502    0  0.83829756751E+03 -0.14530361766E+03  0.19472586107E+03  0.87279671973E+03  0.25500000920E-02 0. -1.
       -2    1    3    3    0  502 -0.83829756751E+03  0.14530361766E+03  0.24390527587E+03  0.88506821014E+03  0.25500000920E-02 0.  1.
</event>
<event>
 5   0  0.1269175E-04  0.1714795E+04  0.7818609E-02  0.8752971E-01
       -2   -1    0    0    0  501  0.00000000000E+00  0.00000000000E+00  0.81553877081E+03  0.81553877081E+03  0.25500000920E-02 0. -1.
        2   -1    0    0  501    0  0.00000000000E+00  0.00000000000E+00 -0.90140449810E+03  0.90140449810E+03  0.25500000920E-02 0.  1.
    10030    2    1    2    0    0  0.00000000000E+00  0.00000000000E+00 -0.85865727290E+02  0.17169432689E+04  0.17147948173E+04 0.  0.
        2    1    3    3  502    0  0.14882201995E+03 -0.83605481191E+03  0.75514440318E+02  0.85254798859E+03  0.25500000920E-02 0. -1.
       -2    1    3    3    0  502 -0.14882201995E+03  0.83605481191E+03 -0.16138016761E+03  0.86439528033E+03  0.25500000920E-02 0.  1.
</event>
<event>
 5   0  0.6601906E-05  0.1702127E+04  0.7818609E-02  0.8760152E-01
       -1   -1    0    0    0  501  0.00000000000E+00  0.00000000000E+00  0.65829457849E+03  0.65829457851E+03  0.50400001928E-02 0.  1.
        1   -1    0    0  501    0  0.00000000000E+00  0.00000000000E+00 -0.11002817041E+04  0.11002817042E+04  0.50400001928E-02 0. -1.
    10030    2    1    2    0    0  0.00000000000E+00  0.00000000000E+00 -0.44198712566E+03  0.17585762827E+04  0.17021274696E+04 0.  0.
        1    1    3    3  502    0  0.29805926226E+03  0.74976840581E+03  0.58758268798E+02  0.80897745355E+03  0.50400001928E-02 0.  1.
       -1    1    3    3    0  502 -0.29805926226E+03 -0.74976840581E+03 -0.50074539446E+03  0.94959882912E+03  0.50400001928E-02 0. -1.
</event>
<event>
 5   0  0.1393870E-04  0.1702677E+04  0.7818609E-02  0.8759839E-01
        2   -1    0    0  501    0  0.00000000000E+00  0.00000000000E+00  0.19722880789E+04  0.19722880789E+04  0.25500000920E-02 0.  1.
       -2   -1    0    0    0  501  0.00000000000E+00  0.00000000000E+00 -0.36748035990E+03  0.36748035991E+03  0.25500000920E-02 0. -1.
    10030    2    1    2    0    0  0.00000000000E+00  0.00000000000E+00  0.16048077190E+04  0.23397684388E+04  0.17026768725E+04 0.  0.
        3    1    3    3  502    0  0.65146517427E+03  0.37157400134E+03  0.24879385481E+03  0.79017245216E+03  0.10100000352E+00 0. -1.
       -3    1    3    3    0  502 -0.65146517427E+03 -0.37157400134E+03  0.13560138642E+04  0.15495959866E+04  0.10100000352E+00 0.  1.
</event>
<event>
 5   0  0.1269175E-04  0.1692352E+04  0.7818609E-02  0.8765738E-01
       -2   -1    0    0    0  501  0.00000000000E+00  0.00000000000E+00  0.54943322663E+03  0.54943322663E+03  0.25500000920E-02 0. -1.
        2   -1    0    0  501    0  0.00000000000E+00  0.00000000000E+00 -0.13031860854E+04  0.13031860854E+04  0.25500000920E-02 0.  1.
    10030    2    1    2    0    0  0.00000000000E+00  0.00000000000E+00 -0.75375285878E+03  0.18526193120E+04  0.16923518970E+04 0.  0.
        2    1    3    3  502    0  0.69966009274E+03  0.38327031190E+03 -0.68036155156E+02  0.80065554128E+03  0.25500000920E-02 0.  1.
       -2    1    3    3    0  502 -0.69966009274E+03 -0.38327031190E+03 -0.68571670362E+03  0.10519637708E+04  0.25500000920E-02 0. -1.
</event>
<event>
 5   0  0.6615842E-05  0.1703234E+04  0.7818609E-02  0.8759522E-01
        1   -1    0    0  501    0  0.00000000000E+00  0.00000000000E+00  0.71290841086E+03  0.71290841087E+03  0.50400001928E-02 0. -1.
       -1   -1    0    0    0  501  0.00000000000E+00  0.00000000000E+00 -0.10173141160E+04  0.10173141161E+04  0.50400001928E-02 0.  1.
    10030    2    1    2    0    0  0.00000000000E+00  0.00000000000E+00 -0.30440570518E+03  0.17302225269E+04  0.17032343231E+04 0.  0.
        3    1    3    3  502    0 -0.42359515614E+03 -0.36399713130E+03  0.50088770561E+03  0.75021015171E+03  0.10100000352E+00 0. -1.
       -3    1    3    3    0  502  0.42359515614E+03  0.36399713130E+03 -0.80529341079E+03  0.98001237521E+03  0.10100000352E+00 0.  1.
</event>
<event>
 5   0  0.6615842E-05  0.1708903E+04  0.7818609E-02  0.8756303E-01
        1   -1    0    0  501    0  0.00000000000E+00  0.00000000000E+00  0.13911039071E+04  0.13911039071E+04  0.50400001928E-02 0. -1.
       -1   -1    0    0    0  501  0.00000000000E+00  0.00000000000E+00 -0.52482562330E+03  0.52482562332E+03  0.50400001928E-02 0.  1.
    10030    2    1    2    0    0  0.00000000000E+00  0.00000000000E+00  0.86627828380E+03  0.19159295304E+04  0.17089025427E+04 0.  0.
        3    1    3    3  502    0 -0.64116701601E+03  0.33663578444E+03 -0.75307962581E+02  0.72807286258E+03  0.10100000352E+00 0.  1.
       -3    1    3    3    0  502  0.64116701601E+03 -0.33663578444E+03  0.94158624639E+03  0.11878566679E+04  0.10100000352E+00 0. -1.
</event>
<event>
 5   0  0.6564887E-05  0.1698140E+04  0.7818609E-02  0.8762426E-01
       -1   -1    0    0    0  501  0.00000000000E+00  0.00000000000E+00  0.55213177044E+03  0.55213177047E+03  0.50400001928E-02 0.  1.
        1   -1    0    0  501    0  0.00000000000E+00  0.00000000000E+00 -0.13057031029E+04  0.13057031029E+04  0.50400001928E-02 0. -1.
    10030    2    1    2    0    0  0.00000000000E+00  0.00000000000E+00 -0.75357133246E+03  0.18578348734E+04  0.16981403545E+04 0.  0.
        4    1    3    3  502    0  0.19921845048E+03  0.19925505766E+03 -0.12530625009E+04  0.12843511253E+04  0.12699999809E+01 0. -1.
       -4    1    3    3    0  502 -0.19921845048E+03 -0.19925505766E+03  0.49949116846E+03  0.57348374805E+03  0.12699999809E+01 0.  1.
</event>
<event>
 5   0  0.1393870E-04  0.1699237E+04  0.7818609E-02  0.8761800E-01
        2   -1    0    0  501    0  0.00000000000E+00  0.00000000000E+00  0.10122871907E+04  0.10122871907E+04  0.25500000920E-02 0. -1.
       -2   -1    0    0    0  501  0.00000000000E+00  0.00000000000E+00 -0.71308960221E+03  0.71308960221E+03  0.25500000920E-02 0.  1.
    10030    2    1    2    0    0  0.00000000000E+00  0.00000000000E+00  0.29919758853E+03  0.17253767930E+04  0.16992368524E+04 0.  0.
        3    1    3    3  502    0 -0.48372881514E+03  0.36292742408E+03  0.75555518960E+03  0.96776729459E+03  0.10100000352E+00 0. -1.
       -3    1    3    3    0  502  0.48372881514E+03 -0.36292742408E+03 -0.45635760107E+03  0.75760949836E+03  0.10100000352E+00 0.  1.
</event>
<event>
 5   0  0.1269175E-04  0.1587959E+04  0.7818609E-02  0.8827980E-01
        2   -1    0    0  501    0  0.00000000000E+00  0.00000000000E+00  0.49313719377E+03  0.49313719377E+03  0.25500000920E-02 0.  1.
       -2   -1    0    0    0  501  0.00000000000E+00  0.00000000000E+00 -0.12783528396E+04  0.12783528396E+04  0.25500000920E-02 0. -1.
    10030    2    1    2    0    0  0.00000000000E+00  0.00000000000E+00 -0.78521564580E+03  0.17714900333E+04  0.15879588558E+04 0.  0.
        2    1    3    3  502    0  0.20838543236E+03  0.60551557727E+03 -0.91625168583E+03  0.11178509536E+04  0.25500000920E-02 0. -1.
       -2    1    3    3    0  502 -0.20838543236E+03 -0.60551557727E+03  0.13103604003E+03  0.65363907971E+03  0.25500000920E-02 0.  1.
</event>
<event>
 5   0  0.1285639E-04  0.1701867E+04  0.7818609E-02  0.8760300E-01
        2   -1    0    0  501    0  0.00000000000E+00  0.00000000000E+00  0.43589687823E+03  0.43589687824E+03  0.25500000920E-02 0. -1.
       -2   -1    0    0    0  501  0.00000000000E+00  0.00000000000E+00 -0.16611452725E+04  0.16611452725E+04  0.25500000920E-02 0.  1.
    10030    2    1    2    0    0  0.00000000000E+00  0.00000000000E+00 -0.12252483943E+04  0.20970421507E+04  0.17018672552E+04 0.  0.
        4    1    3    3  502    0  0.41066627824E+03  0.28336226706E+03  0.23674160133E+03  0.55225824138E+03  0.12699999809E+01 0. -1.
       -4    1    3    3    0  502 -0.41066627824E+03 -0.28336226706E+03 -0.14619899956E+04  0.15447839094E+04  0.12699999809E+01 0.  1.
</event>
<event>
 5   0  0.6539134E-05  0.1691381E+04  0.7818609E-02  0.8766296E-01
        1   -1    0    0  501    0  0.00000000000E+00  0.00000000000E+00  0.12166220809E+04  0.12166220809E+04  0.50400001928E-02 0. -1.
       -1   -1    0    0    0  501  0.00000000000E+00  0.00000000000E+00 -0.58785065199E+03  0.58785065201E+03  0.50400001928E-02 0.  1.
    10030    2    1    2    0    0  0.00000000000E+00  0.00000000000E+00  0.62877142894E+03  0.18044727329E+04  0.16913806000E+04 0.  0.
        2    1    3    3  502    0 -0.34687967044E+03 -0.41568365761E+03 -0.37872579660E+03  0.66072054455E+03  0.25500000920E-02 0.  1.
       -2    1    3    3    0  502  0.34687967044E+03  0.41568365761E+03  0.10074972255E+04  0.11437521884E+04  0.25500000920E-02 0. -1.
</event>
<event>
 5   0  0.4720875E-05  0.1691121E+04  0.7818609E-02  0.8766445E-01
       -3   -1    0    0    0  501  0.00000000000E+00  0.00000000000E+00  0.73446032696E+03  0.73446033390E+03  0.10100000352E+00 0.  1.
        3   -1    0    0  501    0  0.00000000000E+00  0.00000000000E+00 -0.97346634433E+03  0.97346634957E+03  0.10100000352E+00 0. -1.
    10030    2    1    2    0    0  0.00000000000E+00  0.00000000000E+00 -0.23900601737E+03  0.17079266835E+04  0.16911208354E+04 0.  0.
        5    1    3    3  502    0  0.54464668565E+03  0.31441585120E+03  0.45131552065E+03  0.77408341208E+03  0.46999998093E+01 0.  1.
       -5    1    3    3    0  502 -0.54464668565E+03 -0.31441585120E+03 -0.69032153802E+03  0.93384327139E+03  0.46999998093E+01 0. -1.
</event>
<event>
 5   0  0.1255362E-04  0.1702434E+04  0.7818609E-02  0.8759978E-01
       -2   -1    0    0    0  501  0.00000000000E+00  0.00000000000E+00  0.11248181974E+04  0.11248181974E+04  0.25500000920E-02 0. -1.
        2   -1    0    0  501    0  0.00000000000E+00  0.00000000000E+00 -0.64416640205E+03  0.64416640206E+03  0.25500000920E-02 0.  1.
    10030    2    1    2    0    0  0.00000000000E+00  0.00000000000E+00  0.48065179531E+03  0.17689845994E+04  0.17024336594E+04 0.  0.
        1    1    3    3  502    0 -0.11731652226E+03 -0.79052281578E+03 -0.64183987818E+02  0.80175374835E+03  0.50400001928E-02 0. -1.
       -1    1    3    3    0  502  0.11731652226E+03  0.79052281578E+03  0.54483578313E+03  0.96723085108E+03  0.50400001928E-02 0.  1.
</event>
<event>
 5   0  0.1269175E-04  0.1699457E+04  0.7818609E-02  0.8761674E-01
        2   -1    0    0  501    0  0.00000000000E+00  0.00000000000E+00  0.52690679036E+03  0.52690679037E+03  0.25500000920E-02 0. -1.
       -2   -1    0    0    0  501  0.00000000000E+00  0.00000000000E+00 -0.13703337786E+04  0.13703337786E+04  0.25500000920E-02 0.  1.
    10030    2    1    2    0    0  0.00000000000E+00  0.00000000000E+00 -0.84342698823E+03  0.18972405690E+04  0.16994565873E+04 0.  0.
        2    1    3    3  502    0  0.59715876683E+03  0.30210826461E+03 -0.10062645289E+04  0.12084851254E+04  0.25500000920E-02 0.  1.
       -2    1    3    3    0  502 -0.59715876683E+03 -0.30210826461E+03  0.16283754064E+03  0.68875544353E+03  0.25500000920E-02 0. -1.
</event>
<event>
 5   0  0.6601906E-05  0.1699160E+04  0.7818609E-02  0.8761843E-01
       -1   -1    0    0    0  501  0.00000000000E+00  0.00000000000E+00  0.38109213628E+03  0.38109213631E+03  0.50400001928E-02 0.  1.
        1   -1    0    0  501    0  0.00000000000E+00  0.00000000000E+00 -0.18939943856E+04  0.18939943856E+04  0.50400001928E-02 0. -1.
    10030    2    1    2    0    0  0.00000000000E+00  0.00000000000E+00 -0.15129022494E+04  0.22750865220E+04  0.16991602238E+04 0.  0.
        1    1    3    3  502    0 -0.14454321996E+03  0.46696187571E+03  0.17393946477E+03  0.51884590509E+03  0.50400001928E-02 0.  1.
       -1    1    3    3    0  502  0.14454321996E+03 -0.46696187571E+03 -0.16868417141E+04  0.17562406169E+04  0.50400001928E-02 0. -1.
</event>
<event>
 5   0  0.6615842E-05  0.1704343E+04  0.7818609E-02  0.8758891E-01
        1   -1    0    0  501    0  0.00000000000E+00  0.00000000000E+00  0.18914565770E+04  0.18914565770E+04  0.50400001928E-02 0.  1.
       -1   -1    0    0    0  501  0.00000000000E+00  0.00000000000E+00 -0.38393490235E+03  0.38393490239E+03  0.50400001928E-02 0. -1.
    10030    2    1    2    0    0  0.00000000000E+00  0.00000000000E+00  0.15075216747E+04  0.22753914794E+04  0.17043429188E+04 0.  0.
        3    1    3    3  502    0 -0.30450694032E+03  0.66808514218E+03  0.13312920249E+04  0.15203291419E+04  0.10100000352E+00 0.  1.
       -3    1    3    3    0  502  0.30450694032E+03 -0.66808514218E+03  0.17622964979E+03  0.75506233754E+03  0.10100000352E+00 0. -1.
</event>
<event>
 5   0  0.6564887E-05  0.1706751E+04  0.7818609E-02  0.8757524E-01
       -1   -1    0    0    0  501  0.00000000000E+00  0.00000000000E+00  0.91516369445E+03  0.91516369446E+03  0.50400001928E-02 0. -1.
        1   -1    0    0  501    0  0.00000000000E+00  0.00000000000E+00 -0.79575872662E+03  0.79575872664E+03  0.50400001928E-02 0.  1.
    10030    2    1    2    0    0  0.00000000000E+00  0.00000000000E+00  0.11940496783E+03  0.17109224211E+04  0.17067507096E+04 0.  0.
        4    1    3    3  502    0 -0.59445250411E+03 -0.39577305036E+03  0.52800361776E+03  0.88814386239E+03  0.12699999809E+01 0. -1.
       -4    1    3    3    0  502  0.59445250411E+03  0.39577305036E+03 -0.40859864994E+03  0.82277855870E+03  0.12699999809E+01 0.  1.
</event>
<event>
 5   0  0.6615842E-05  0.1705698E+04  0.7818609E-02  0.8758121E-01
       -1   -1    0    0    0  501  0.00000000000E+00  0.00000000000E+00  0.11307169827E+04  0.11307169827E+04  0.50400001928E-02 0. -1.
        1   -1    0    0  501    0  0.00000000000E+00  0.00000000000E+00 -0.64326598789E+03  0.64326598791E+03  0.50400001928E-02 0.  1.
    10030    2    1    2    0    0  0.00000000000E+00  0.00000000000E+00  0.48745099480E+03  0.17739829706E+04  0.17056984222E+04 0.  0.
        3    1    3    3  502    0  0.63796892455E+02 -0.59210102020E+03 -0.39120441990E+03  0.71252689069E+03  0.10100000352E+00 0. -1.
       -3    1    3    3    0  502 -0.63796892455E+02  0.59210102020E+03  0.87865541470E+03  0.10614560799E+04  0.10100000352E+00 0.  1.
</event>
<event>
 5   0  0.1393870E-04  0.1704953E+04  0.7818609E-02  0.8758544E-01
       -2   -1    0    0    0  501  0.00000000000E+00  0.00000000000E+00  0.82869144650E+03  0.82869144650E+03  0.25500000920E-02 0.  1.
        2   -1    0    0  501    0  0.00000000000E+00  0.00000000000E+00 -0.87694472432E+03  0.87694472433E+03  0.25500000920E-02 0. -1.
    10030    2    1    2    0    0  0.00000000000E+00  0.00000000000E+00 -0.48253277826E+02  0.17056361708E+04  0.17049534798E+04 0.  0.
        3    1    3    3  502    0  0.99824379260E+02 -0.73629103286E+03  0.39392487136E+03  0.84099120462E+03  0.10100000352E+00 0.  1.
       -3    1    3    3    0  502 -0.99824379260E+02  0.73629103286E+03 -0.44217814919E+03  0.86464496621E+03  0.10100000352E+00 0. -1.
</event>
<event>
 5   0  0.6539134E-05  0.1705642E+04  0.7818609E-02  0.8758153E-01
       -1   -1    0    0    0  501  0.00000000000E+00  0.00000000000E+00  0.40520599570E+03  0.40520599573E+03  0.50400001928E-02 0. -1.
        1   -1    0    0  501    0  0.00000000000E+00  0.00000000000E+00 -0.17948979058E+04  0.17948979058E+04  0.50400001928E-02 0.  1.
    10030    2    1    2    0    0  0.00000000000E+00  0.00000000000E+00 -0.13896919101E+04  0.22001039016E+04  0.17056416894E+04 0.  0.
        2    1    3    3  502    0 -0.19262886304E+02 -0.84628495496E+03 -0.56120536135E+03  0.10156380957E+04  0.25500000920E-02 0. -1.
       -2    1    3    3    0  502  0.19262886304E+02  0.84628495496E+03 -0.82848654877E+03  0.11844658059E+04  0.25500000920E-02 0.  1.
</event>
<event>
 5   0  0.1255362E-04  0.1705408E+04  0.7818609E-02  0.8758286E-01
       -2   -1    0    0    0  501  0.00000000000E+00  0.00000000000E+00  0.55827015331E+03  0.55827015332E+03  0.25500000920E-02 0. -1.
        2   -1    0    0  501    0  0.00000000000E+00  0.00000000000E+00 -0.13024233172E+04  0.13024233172E+04  0.25500000920E-02 0.  1.
    10030    2    1    2    0    0  0.00000000000E+00  0.00000000000E+00 -0.74415316392E+03  0.18606934706E+04  0.17054079453E+04 0.  0.
        1    1    3    3  502    0 -0.47742506346E+02  0.75503565406E+03  0.57119845161E+02  0.75869681860E+03  0.50400001928E-02 0. -1.
       -1    1    3    3    0  502  0.47742506346E+02 -0.75503565406E+03 -0.80127300908E+03  0.11019966520E+04  0.50400001928E-02 0.  1.
</event>
<event>
 5   0  0.6539134E-05  0.1713805E+04  0.7818609E-02  0.8753530E-01
       -1   -1    0    0    0  501  0.00000000000E+00  0.00000000000E+00  0.66860316029E+03  0.66860316031E+03  0.50400001928E-02 0. -1.
        1   -1    0    0  501    0  0.00000000000E+00  0.00000000000E+00 -0.10982324981E+04  0.10982324981E+04  0.50400001928E-02 0.  1.
    10030    2    1    2    0    0  0.00000000000E+00  0.00000000000E+00 -0.42962933777E+03  0.17668356584E+04  0.17138047951E+04 0.  0.
        2    1    3    3  502    0 -0.23062175295E+03  0.82141396052E+03 -0.29712522411E+03  0.90343272371E+03  0.25500000920E-02 0. -1.
       -2    1    3    3    0  502  0.23062175295E+03 -0.82141396052E+03 -0.13250411366E+03  0.86340293468E+03  0.25500000920E-02 0.  1.
</event>
<event>
 5   0  0.6615842E-05  0.1694530E+04  0.7818609E-02  0.8764490E-01
       -1   -1    0    0    0  501  0.00000000000E+00  0.00000000000E+00  0.89641091036E+03  0.89641091038E+03  0.50400001928E-02 0.  1.
        1   -1    0    0  501    0  0.00000000000E+00  0.00000000000E+00 -0.80081334008E+03  0.80081334010E+03  0.50400001928E-02 0. -1.
    10030    2    1    2    0    0  0.00000000000E+00  0.00000000000E+00  0.95597570282E+02  0.16972242505E+04  0.16945298053E+04 0.  0.
        3    1    3    3  502    0 -0.83402029185E+03  0.13132563221E+03  0.11877426105E+03  0.85260987806E+03  0.10100000352E+00 0. -1.
       -3    1    3    3    0  502  0.83402029185E+03 -0.13132563221E+03 -0.23176690767E+02  0.84461437241E+03  0.10100000352E+00 0.  1.
</event>
<event>
 5   0  0.1285639E-04  0.1682037E+04  0.7818609E-02  0.8771676E-01
       -2   -1    0    0    0  501  0.00000000000E+00  0.00000000000E+00  0.36235817454E+03  0.36235817455E+03  0.25500000920E-02 0. -1.
        2   -1    0    0  501    0  0.00000000000E+00  0.00000000000E+00 -0.19519684186E+04  0.19519684186E+04  0.25500000920E-02 0.  1.
    10030    2    1    2    0    0  0.00000000000E+00  0.00000000000E+00 -0.15896102440E+04  0.23143265931E+04  0.16820365191E+04 0.  0.
        4    1    3    3  502    0  0.19319337818E+03  0.57170422691E+03 -0.16007871144E+04  0.17107572601E+04  0.12699999809E+01 0.  1.
       -4    1    3    3    0  502 -0.19319337818E+03 -0.57170422691E+03  0.11176870373E+02  0.60356933303E+03  0.12699999809E+01 0. -1.
</event>
<event>
 5   0  0.6564887E-05  0.1711489E+04  0.7818609E-02  0.8754839E-01
       -1   -1    0    0    0  501  0.00000000000E+00  0.00000000000E+00  0.42240335039E+03  0.42240335042E+03  0.50400001928E-02 0. -1.
        1   -1    0    0  501    0  0.00000000000E+00  0.00000000000E+00 -0.17336469907E+04  0.17336469907E+04  0.50400001928E-02 0.  1.
    10030    2    1    2    0    0  0.00000000000E+00  0.00000000000E+00 -0.13112436403E+04  0.21560503411E+04  0.17114885887E+04 0.  0.
        4    1    3    3  502    0  0.81348959812E+02  0.54168875829E+03 -0.14838567752E+04  0.15817322486E+04  0.12699999809E+01 0.  1.
       -4    1    3    3    0  502 -0.81348959812E+02 -0.54168875829E+03  0.17261313491E+03  0.57431809249E+03  0.12699999809E+01 0. -1.
</event>
<event>
 5   0  0.1269175E-04  0.1697642E+04  0.7818609E-02  0.8762711E-01
       -2   -1    0    0    0  501  0.00000000000E+00  0.00000000000E+00  0.34541971961E+03  0.34541971962E+03  0.25500000920E-02 0.  1.
        2   -1    0    0  501    0  0.00000000000E+00  0.00000000000E+00 -0.20858588087E+04  0.20858588087E+04  0.25500000920E-02 0. -1.
    10030    2    1    2    0    0  0.00000000000E+00  0.00000000000E+00 -0.17404390891E+04  0.24312785283E+04  0.16976416169E+04 0.  0.
        2    1    3    3  502    0  0.60371765174E+03 -0.13915751862E+02 -0.15922644196E+02  0.60408789242E+03  0.25500000920E-02 0.  1.
       -2    1    3    3    0  502 -0.60371765174E+03  0.13915751862E+02 -0.17245164449E+04  0.18271906359E+04  0.25500000920E-02 0. -1.
</event>
<event>
 5   0  0.6834837E-05  0.1709545E+04  0.7818609E-02  0.8755939E-01
        1   -1    0    0  501    0  0.00000000000E+00  0.00000000000E+00  0.18402104826E+04  0.18402104826E+04  0.50400001928E-02 0. -1.
       -1   -1    0    0    0  501  0.00000000000E+00  0.00000000000E+00 -0.39703928627E+03  0.39703928630E+03  0.50400001928E-02 0.  1.
    10030    2    1    2    0    0  0.00000000000E+00  0.00000000000E+00  0.14431711963E+04  0.22372497689E+04  0.17095448010E+04 0.  0.
        5    1    3    3  502    0 -0.31240681876E+03  0.75931667107E+03  0.10325288322E+04  0.13192034364E+04  0.46999998093E+01 0. -1.
       -5    1    3    3    0  502  0.31240681876E+03 -0.75931667107E+03  0.41064236415E+03  0.91804633249E+03  0.46999998093E+01 0.  1.
</event>
<event>
 5   0  0.1393870E-04  0.1700276E+04  0.7818609E-02  0.8761207E-01
       -2   -1    0    0    0  501  0.00000000000E+00  0.00000000000E+00  0.38352518895E+03  0.38352518896E+03  0.25500000920E-02 0. -1.
        2   -1    0    0  501    0  0.00000000000E+00  0.00000000000E+00 -0.18844505474E+04  0.18844505474E+04  0.25500000920E-02 0.  1.
    10030    2    1    2    0    0  0.00000000000E+00  0.00000000000E+00 -0.15009253585E+04  0.22679757364E+04  0.17002755686E+04 0.  0.
        3    1    3    3  502    0  0.83620474399E+02  0.78748497425E+03 -0.33801477702E+03  0.86103366258E+03  0.10100000352E+00 0. -1.
       -3    1    3    3    0  502 -0.83620474399E+02 -0.78748497425E+03 -0.11629105814E+04  0.14069420738E+04  0.10100000352E+00 0.  1.
</event>
<event>
 5   0  0.6539134E-05  0.1716015E+04  0.7818609E-02  0.8752283E-01
       -1   -1    0    0    0  501  0.00000000000E+00  0.00000000000E+00  0.58527164378E+03  0.58527164380E+03  0.50400001928E-02 0.  1.
        1   -1    0    0  501    0  0.00000000000E+00  0.00000000000E+00 -0.12578380711E+04  0.12578380711E+04  0.50400001928E-02 0. -1.
    10030    2    1    2    0    0  0.00000000000E+00  0.00000000000E+00 -0.67256642727E+03  0.18431097149E+04  0.17160150996E+04 0.  0.
        2    1    3    3  502    0  0.68807230322E+03  0.43665453692E+03 -0.47949035778E+02  0.81633926104E+03  0.25500000920E-02 0. -1.
       -2    1    3    3    0  502 -0.68807230322E+03 -0.43665453692E+03 -0.62461739150E+03  0.10267704538E+04  0.25500000920E-02 0.  1.
</event>
<event>
 5   0  0.1269175E-04  0.1697164E+04  0.7818609E-02  0.8762983E-01
       -2   -1    0    0    0  501  0.00000000000E+00  0.00000000000E+00  0.13196290754E+04  0.13196290754E+04  0.25500000920E-02 0. -1.
        2   -1    0    0  501    0  0.00000000000E+00  0.00000000000E+00 -0.54567719249E+03  0.54567719249E+03  0.25500000920E-02 0.  1.
    10030    2    1    2    0    0  0.00000000000E+00  0.00000000000E+00  0.77395188291E+03  0.18653062679E+04  0.16971640922E+04 0.  0.
        2    1    3    3  502    0 -0.81623553542E+03 -0.71794778525E+02  0.14444038888E+03  0.83202041168E+03  0.25500000920E-02 0.  1.
       -2    1    3    3    0  502  0.81623553542E+03  0.71794778525E+02  0.62951149403E+03  0.10332858562E+04  0.25500000920E-02 0. -1.
</event>
<event>
 5   0  0.1255362E-04  0.1716762E+04  0.7818609E-02  0.8751862E-01
        2   -1    0    0  501    0  0.00000000000E+00  0.00000000000E+00  0.10294318994E+04  0.10294318995E+04  0.25500000920E-02 0. -1.
       -2   -1    0    0    0  501  0.00000000000E+00  0.00000000000E+00 -0.71575215807E+03  0.71575215808E+03  0.25500000920E-02 0.  1.
    10030    2    1    2    0    0  0.00000000000E+00  0.00000000000E+00  0.31367974137E+03  0.17451840575E+04  0.17167621893E+04 0.  0.
        1    1    3    3  502    0  0.88087959527E+02  0.84024256836E+03  0.25006255741E+01  0.84485106111E+03  0.50400001928E-02 0.  1.
       -1    1    3    3    0  502 -0.88087959527E+02 -0.84024256836E+03  0.31117911580E+03  0.90033299642E+03  0.50400001928E-02 0. -1.
</event>
<event>
 5   0  0.6615842E-05  0.1692319E+04  0.7818609E-02  0.8765757E-01
        1   -1    0    0  501    0  0.00000000000E+00  0.00000000000E+00  0.24064505044E+04  0.24064505044E+04  0.50400001928E-02 0. -1.
       -1   -1    0    0    0  501  0.00000000000E+00  0.00000000000E+00 -0.29752778724E+03  0.29752778729E+03  0.50400001928E-02 0.  1.
    10030    2    1    2    0    0  0.00000000000E+00  0.00000000000E+00  0.21089227172E+04  0.27039782917E+04  0.16923189933E+04 0.  0.
        3    1    3    3  502    0 -0.27730168075E+03 -0.51810832647E+03  0.20272197365E+04  0.21106757994E+04  0.10100000352E+00 0. -1.
       -3    1    3    3    0  502  0.27730168075E+03  0.51810832647E+03  0.81702980704E+02  0.59330249229E+03  0.10100000352E+00 0.  1.
</event>
<event>
 5   0  0.6564887E-05  0.1696833E+04  0.7818609E-02  0.8763172E-01
       -1   -1    0    0    0  501  0.00000000000E+00  0.00000000000E+00  0.35729063634E+03  0.35729063637E+03  0.50400001928E-02 0.  1.
        1   -1    0    0  501    0  0.00000000000E+00  0.00000000000E+00 -0.20146366936E+04  0.20146366936E+04  0.50400001928E-02 0. -1.
    10030    2    1    2    0    0  0.00000000000E+00  0.00000000000E+00 -0.16573460573E+04  0.23719273300E+04  0.16968333169E+04 0.  0.
        4    1    3    3  502    0  0.27176808405E+02 -0.30332733605E+03 -0.19355971216E+04  0.19594090645E+04  0.12699999809E+01 0. -1.
       -4    1    3    3    0  502 -0.27176808405E+02  0.30332733605E+03  0.27825106434E+03  0.41251826555E+03  0.12699999809E+01 0.  1.
</event>
<event>
 5   0  0.1269175E-04  0.1704151E+04  0.7818609E-02  0.8759001E-01
        2   -1    0    0  501    0  0.00000000000E+00  0.00000000000E+00  0.13974595992E+04  0.13974595992E+04  0.25500000920E-02 0. -1.
       -2   -1    0    0    0  501  0.00000000000E+00  0.00000000000E+00 -0.51953720732E+03  0.51953720733E+03  0.25500000920E-02 0.  1.
    10030    2    1    2    0    0  0.00000000000E+00  0.00000000000E+00  0.87792239191E+03  0.19169968066E+04  0.17041505304E+04 0.  0.
        2    1    3    3  502    0 -0.15712186167E+02 -0.41189074035E+03 -0.39992325520E+03  0.57431651973E+03  0.25500000920E-02 0.  1.
       -2    1    3    3    0  502  0.15712186167E+02  0.41189074035E+03  0.12778456471E+04  0.13426802868E+04  0.25500000920E-02 0. -1.
</event>
<event>
 5   0  0.1285639E-04  0.1693328E+04  0.7818609E-02  0.8765179E-01
       -2   -1    0    0    0  501  0.00000000000E+00  0.00000000000E+00  0.13119684192E+04  0.13119684192E+04  0.25500000920E-02 0. -1.
        2   -1    0    0  501    0  0.00000000000E+00  0.00000000000E+00 -0.54638511100E+03  0.54638511101E+03  0.25500000920E-02 0.  1.
    10030    2    1    2    0    0  0.00000000000E+00  0.00000000000E+00  0.76558330821E+03  0.18583535302E+04  0.16933280962E+04 0.  0.
        4    1    3    3  502    0 -0.20039888165E+02  0.84101468579E+03  0.27792226461E+03  0.88597386920E+03  0.12699999809E+01 0. -1.
       -4    1    3    3    0  502  0.20039888165E+02 -0.84101468579E+03  0.48766104360E+03  0.97237966102E+03  0.12699999809E+01 0.  1.
</event>
<event>
 5   0  0.1393870E-04  0.1694244E+04  0.7818609E-02  0.8764654E-01
        2   -1    0    0  501    0  0.00000000000E+00  0.00000000000E+00  0.97875793912E+03  0.97875793912E+03  0.25500000920E-02 0.  1.
       -2   -1    0    0    0  501  0.00000000000E+00  0.00000000000E+00 -0.73319051934E+03  0.73319051935E+03  0.25500000920E-02 0. -1.
    10030    2    1    2    0    0  0.00000000000E+00  0.00000000000E+00  0.24556741978E+03  0.17119484585E+04  0.16942444236E+04 0.  0.
        3    1    3    3  502    0 -0.41692816300E+03  0.48081127574E+03 -0.44217184885E+03  0.77493517799E+03  0.10100000352E+00 0. -1.
       -3    1    3    3    0  502  0.41692816300E+03 -0.48081127574E+03  0.68773926862E+03  0.93701328048E+03  0.10100000352E+00 0.  1.
</event>
<event>
 5   0  0.1333546E-04  0.1708365E+04  0.7818609E-02  0.8756608E-01
        2   -1    0    0  501    0  0.00000000000E+00  0.00000000000E+00  0.10489705379E+04  0.10489705379E+04  0.25500000920E-02 0. -1.
       -2   -1    0    0    0  501  0.00000000000E+00  0.00000000000E+00 -0.69556515154E+03  0.69556515155E+03  0.25500000920E-02 0.  1.
    10030    2    1    2    0    0  0.00000000000E+00  0.00000000000E+00  0.35340538631E+03  0.17445356894E+04  0.17083645409E+04 0.  0.
        5    1    3    3  502    0 -0.61420179491E+03 -0.59323720650E+03  0.19790360893E+03  0.87656269397E+03  0.46999998093E+01 0. -1.
       -5    1    3    3    0  502  0.61420179491E+03  0.59323720650E+03  0.15550177739E+03  0.86797299544E+03  0.46999998093E+01 0.  1.
</event>
<event>
 5   0  0.6564887E-05  0.1696114E+04  0.7818609E-02  0.8763584E-01
        1   -1    0    0  501    0  0.00000000000E+00  0.00000000000E+00  0.88723500643E+03  0.88723500644E+03  0.50400001928E-02 0. -1.
       -1   -1    0    0    0  501  0.00000000000E+00  0.00000000000E+00 -0.81060892319E+03  0.81060892320E+03  0.50400001928E-02 0.  1.
    10030    2    1    2    0    0  0.00000000000E+00  0.00000000000E+00  0.76626083239E+02  0.16978439296E+04  0.16961139268E+04 0.  0.
        4    1    3    3  502    0 -0.18349275257E+03  0.68955356413E+03 -0.42046140721E+03  0.82821682904E+03  0.12699999809E+01 0.  1.
       -4    1    3    3    0  502  0.18349275257E+03 -0.68955356413E+03  0.49708749045E+03  0.86962710061E+03  0.12699999809E+01 0. -1.
</event>
<event>
 5   0  0.6834837E-05  0.1697255E+04  0.7818609E-02  0.8762932E-01
        1   -1    0    0  501    0  0.00000000000E+00  0.00000000000E+00  0.12925868765E+04  0.12925868766E+04  0.50400001928E-02 0. -1.
       -1   -1    0    0    0  501  0.00000000000E+00  0.00000000000E+00 -0.55715287878E+03  0.55715287880E+03  0.50400001928E-02 0.  1.
    10030    2    1    2    0    0  0.00000000000E+00  0.00000000000E+00  0.73543399776E+03  0.18497397554E+04  0.16972548416E+04 0.  0.
        5    1    3    3  502    0 -0.12387698851E+03 -0.74801281090E+03  0.78311375981E+03  0.10900265705E+04  0.46999998093E+01 0. -1.
       -5    1    3    3    0  502  0.12387698851E+03  0.74801281090E+03 -0.47679762052E+02  0.75971318487E+03  0.46999998093E+01 0.  1.
</event>
<event>
 5   0  0.6601906E-05  0.1724709E+04  0.7818609E-02  0.8747396E-01
        1   -1    0    0  501    0  0.00000000000E+00  0.00000000000E+00  0.95722309850E+03  0.95722309852E+03  0.50400001928E-02 0.  1.
       -1   -1    0    0    0  501  0.00000000000E+00  0.00000000000E+00 -0.77688806190E+03  0.77688806192E+03  0.50400001928E-02 0. -1.
    10030    2    1    2    0    0  0.00000000000E+00  0.00000000000E+00  0.18033503660E+03  0.17341111604E+04  0.17247089005E+04 0.  0.
        1    1    3    3  502    0  0.41888194377E+03  0.71821825801E+03  0.32022846461E+03  0.89098025709E+03  0.50400001928E-02 0.  1.
       -1    1    3    3    0  502 -0.41888194377E+03 -0.71821825801E+03 -0.13989342801E+03  0.84313090335E+03  0.50400001928E-02 0. -1.
</event>
<event>
 5   0  0.1285639E-04  0.1704226E+04  0.7818609E-02  0.8758958E-01
        2   -1    0    0  501    0  0.00000000000E+00  0.00000000000E+00  0.75048834457E+03  0.75048834457E+03  0.25500000920E-02 0.  1.
       -2   -1    0    0    0  501  0.00000000000E+00  0.00000000000E+00 -0.96749864399E+03  0.96749864399E+03  0.25500000920E-02 0. -1.
    10030    2    1    2    0    0  0.00000000000E+00  0.00000000000E+00 -0.21701029942E+03  0.17179869886E+04  0.17042258720E+04 0.  0.
        4    1    3    3  502    0 -0.32525844486E+03 -0.32424325709E+03  0.61504259888E+03  0.76759739256E+03  0.12699999809E+01 0.  1.
       -4    1    3    3    0  502  0.32525844486E+03  0.32424325709E+03 -0.83205289830E+03  0.95038959601E+03  0.12699999809E+01 0. -1.
</event>
<event>
 5   0  0.1285639E-04  0.1703909E+04  0.7818609E-02  0.8759138E-01
        2   -1    0    0  501    0  0.00000000000E+00  0.00000000000E+00  0.10878228738E+04  0.10878228738E+04  0.25500000920E-02 0. -1.
       -2   -1    0    0    0  501  0.00000000000E+00  0.00000000000E+00 -0.66722838925E+03  0.66722838926E+03  0.25500000920E-02 0.  1.
    10030    2    1    2    0    0  0.00000000000E+00  0.00000000000E+00  0.42059448454E+03  0.17550512631E+04  0.17039088049E+04 0.  0.
        4    1    3    3  502    0  0.60172446432E+03 -0.50628794211E+03  0.54789215776E+03  0.95842957003E+03  0.12699999809E+01 0. -1.
       -4    1    3    3    0  502 -0.60172446432E+03  0.50628794211E+03 -0.12729767322E+03  0.79662169302E+03  0.12699999809E+01 0.  1.
</event>
<event>
 5   0  0.4720875E-05  0.1676880E+04  0.7818609E-02  0.8774662E-01
       -3   -1    0    0    0  501  0.00000000000E+00  0.00000000000E+00  0.36856031984E+03  0.36856033368E+03  0.10100000352E+00 0. -1.
        3   -1    0    0  501    0  0.00000000000E+00  0.00000000000E+00 -0.19073709478E+04  0.19073709505E+04  0.10100000352E+00 0.  1.
    10030    2    1    2    0    0  0.00000000000E+00  0.00000000000E+00 -0.15388106280E+04  0.22759312842E+04  0.16768795608E+04 0.  0.
        4    1    3    3  502    0 -0.52626501581E+03 -0.21943545081E+03  0.64909835446E+02  0.57386556228E+03  0.12699999809E+01 0. -1.
       -4    1    3    3    0  502  0.52626501581E+03  0.21943545081E+03 -0.16037204634E+04  0.17020657219E+04  0.12699999809E+01 0.  1.
</event>
<event>
 5   0  0.1269175E-04  0.1706865E+04  0.7818609E-02  0.8757459E-01
        2   -1    0    0  501    0  0.00000000000E+00  0.00000000000E+00  0.11645029949E+04  0.11645029949E+04  0.25500000920E-02 0. -1.
       -2   -1    0    0    0  501  0.00000000000E+00  0.00000000000E+00 -0.62545718980E+03  0.62545718981E+03  0.25500000920E-02 0.  1.
    10030    2    1    2    0    0  0.00000000000E+00  0.00000000000E+00  0.53904580512E+03  0.17899601847E+04  0.17068646938E+04 0.  0.
        2    1    3    3  502    0 -0.29259267565E+03 -0.79332153335E+03  0.39081361890E+03  0.93150674385E+03  0.25500000920E-02 0.  1.
       -2    1    3    3    0  502  0.29259267565E+03  0.79332153335E+03  0.14823218622E+03  0.85845344088E+03  0.25500000920E-02 0. -1.
</event>
<event>
 5   0  0.6539134E-05  0.1700631E+04  0.7818609E-02  0.8761005E-01
       -1   -1    0    0    0  501  0.00000000000E+00  0.00000000000E+00  0.39999246573E+03  0.39999246576E+03  0.50400001928E-02 0. -1.
        1   -1    0    0  501    0  0.00000000000E+00  0.00000000000E+00 -0.18076245527E+04  0.18076245527E+04  0.50400001928E-02 0.  1.
    10030    2    1    2    0    0  0.00000000000E+00  0.00000000000E+00 -0.14076320870E+04  0.22076170184E+04  0.17006307089E+04 0.  0.
        2    1    3    3  502    0  0.78179091493E+03  0.30840893530E+03 -0.87168564397E+03  0.12108463850E+04  0.25500000920E-02 0.  1.
       -2    1    3    3    0  502 -0.78179091493E+03 -0.30840893530E+03 -0.53594644298E+03  0.99677063349E+03  0.25500000920E-02 0. -1.
</event>
<event>
 5   0  0.6615842E-05  0.1702425E+04  0.7818609E-02  0.8759983E-01
        1   -1    0    0  501    0  0.00000000000E+00  0.00000000000E+00  0.26161014075E+04  0.26161014075E+04  0.50400001928E-02 0. -1.
       -1   -1    0    0    0  501  0.00000000000E+00  0.00000000000E+00 -0.27696275197E+03  0.27696275202E+03  0.50400001928E-02 0.  1.
    10030    2    1    2    0    0  0.00000000000E+00  0.00000000000E+00  0.23391386556E+04  0.28930641595E+04  0.17024249121E+04 0.  0.
        3    1    3    3  502    0  0.21791368931E+03  0.72938579634E+03  0.52230328209E+03  0.92319594051E+03  0.10100000352E+00 0.  1.
       -3    1    3    3    0  502 -0.21791368931E+03 -0.72938579634E+03  0.18168353735E+04  0.19698682190E+04  0.10100000352E+00 0. -1.
</event>
<event>
 5   0  0.1333546E-04  0.1711837E+04  0.7818609E-02  0.8754642E-01
       -2   -1    0    0    0  501  0.00000000000E+00  0.00000000000E+00  0.69852842622E+03  0.69852842622E+03  0.25500000920E-02 0. -1.
        2   -1    0    0  501    0  0.00000000000E+00  0.00000000000E+00 -0.10487717252E+04  0.10487717252E+04  0.25500000920E-02 0.  1.
    10030    2    1    2    0    0  0.00000000000E+00  0.00000000000E+00 -0.35024329894E+03  0.17473001514E+04  0.17118374486E+04 0.  0.
        5    1    3    3  502    0 -0.36093538594E+03 -0.35786038646E+03 -0.87803601249E+03  0.10145480463E+04  0.46999998093E+01 0.  1.
       -5    1    3    3    0  502  0.36093538594E+03  0.35786038646E+03  0.52779271355E+03  0.73275210508E+03  0.46999998093E+01 0. -1.
</event>
<event>
 5   0  0.1255362E-04  0.1700620E+04  0.7818609E-02  0.8761011E-01
       -2   -1    0    0    0  501  0.00000000000E+00  0.00000000000E+00  0.87599637501E+03  0.87599637501E+03  0.25500000920E-02 0. -1.
        2   -1    0    0  501    0  0.00000000000E+00  0.00000000000E+00 -0.82537690292E+03  0.82537690292E+03  0.25500000920E-02 0.  1.
    10030    2    1    2    0    0  0.00000000000E+00  0.00000000000E+00  0.50619472091E+02  0.17013732779E+04  0.17006200928E+04 0.  0.
        1    1    3    3  502    0  0.63172492881E+03  0.56213764710E+03 -0.63904053809E+02  0.84803233905E+03  0.50400001928E-02 0.  1.
       -1    1    3    3    0  502 -0.63172492881E+03 -0.56213764710E+03  0.11452352590E+03  0.85334093888E+03  0.50400001928E-02 0. -1.
</event>
<event>
 5   0  0.6564887E-05  0.1697579E+04  0.7818609E-02  0.8762746E-01
       -1   -1    0    0    0  501  0.00000000000E+00  0.00000000000E+00  0.16867345621E+04  0.16867345622E+04  0.50400001928E-02 0.  1.
        1   -1    0    0  501    0  0.00000000000E+00  0.00000000000E+00 -0.42712319090E+03  0.42712319093E+03  0.50400001928E-02 0. -1.
    10030    2    1    2    0    0  0.00000000000E+00  0.00000000000E+00  0.12596113712E+04  0.21138577531E+04  0.16975788034E+04 0.  0.
        4    1    3    3  502    0 -0.66600318053E+03 -0.50266924387E+03  0.43607410353E+03  0.94148756863E+03  0.12699999809E+01 0.  1.
       -4    1    3    3    0  502  0.66600318053E+03  0.50266924387E+03  0.82353726771E+03  0.11723701845E+04  0.12699999809E+01 0. -1.
</event>
<event>
 5   0  0.6564887E-05  0.1698674E+04  0.7818609E-02  0.8762121E-01
       -1   -1    0    0    0  501  0.00000000000E+00  0.00000000000E+00  0.79428026859E+03  0.79428026860E+03  0.50400001928E-02 0.  1.
        1   -1    0    0  501    0  0.00000000000E+00  0.00000000000E+00 -0.90820996639E+03  0.90820996641E+03  0.50400001928E-02 0. -1.
    10030    2    1    2    0    0  0.00000000000E+00  0.00000000000E+00 -0.11392969781E+03  0.17024902350E+04  0.16986739017E+04 0.  0.
        4    1    3    3  502    0  0.98573225148E+02 -0.39100327280E+03  0.69222468388E+03  0.80110977146E+03  0.12699999809E+01 0.  1.
       -4    1    3    3    0  502 -0.98573225148E+02  0.39100327280E+03 -0.80615438169E+03  0.90138046355E+03  0.12699999809E+01 0. -1.
</event>
<event>
 5   0  0.6834837E-05  0.1703805E+04  0.7818609E-02  0.8759197E-01
        1   -1    0    0  501    0  0.00000000000E+00  0.00000000000E+00  0.13599209504E+04  0.13599209504E+04  0.50400001928E-02 0.  1.
       -1   -1    0    0    0  501  0.00000000000E+00  0.00000000000E+00 -0.53366186354E+03  0.53366186357E+03  0.50400001928E-02 0. -1.
    10030    2    1    2    0    0  0.00000000000E+00  0.00000000000E+00  0.82625908688E+03  0.18935828140E+04  0.17038050930E+04 0.  0.
        5    1    3    3  502    0 -0.46025443998E+03  0.67878139535E+03  0.66932124523E+03  0.10585798749E+04  0.46999998093E+01 0.  1.
       -5    1    3    3    0  502  0.46025443998E+03 -0.67878139535E+03  0.15693784166E+03  0.83500293912E+03  0.46999998093E+01 0. -1.
</event>
<event>
 5   0  0.1285639E-04  0.1698723E+04  0.7818609E-02  0.8762093E-01
        2   -1    0    0  501    0  0.00000000000E+00  0.00000000000E+00  0.11485524473E+04  0.11485524473E+04  0.25500000920E-02 0. -1.
       -2   -1    0    0    0  501  0.00000000000E+00  0.00000000000E+00 -0.62810823888E+03  0.62810823889E+03  0.25500000920E-02 0.  1.
    10030    2    1    2    0    0  0.00000000000E+00  0.00000000000E+00  0.52044420843E+03  0.17766606862E+04  0.16987233500E+04 0.  0.
        4    1    3    3  502    0 -0.43348158893E+03 -0.67464942703E+03  0.55298537613E+03  0.97409064078E+03  0.12699999809E+01 0. -1.
       -4    1    3    3    0  502  0.43348158893E+03  0.67464942703E+03 -0.32541167701E+02  0.80257004543E+03  0.12699999809E+01 0.  1.
</event>
<event>
 5   0  0.6834837E-05  0.1708417E+04  0.7818609E-02  0.8756578E-01
       -1   -1    0    0    0  501  0.00000000000E+00  0.00000000000E+00  0.61735869365E+03  0.61735869367E+03  0.50400001928E-02 0.  1.
        1   -1    0    0  501    0  0.00000000000E+00  0.00000000000E+00 -0.11819263347E+04  0.11819263348E+04  0.50400001928E-02 0. -1.
    10030    2    1    2    0    0  0.00000000000E+00  0.00000000000E+00 -0.56456764109E+03  0.17992850284E+04  0.17084173940E+04 0.  0.
        5    1    3    3  502    0 -0.75105045600E+03  0.15592639432E+02  0.14595147410E+03  0.76527370310E+03  0.46999998093E+01 0.  1.
       -5    1    3    3    0  502  0.75105045600E+03 -0.15592639432E+02 -0.71051911519E+03  0.10340113253E+04  0.46999998093E+01 0. -1.
</event>
<event>
 5   0  0.1393870E-04  0.1699828E+04  0.7818609E-02  0.8761462E-01
       -2   -1    0    0    0  501  0.00000000000E+00  0.00000000000E+00  0.12920703733E+04  0.12920703733E+04  0.25500000920E-02 0. -1.
        2   -1    0    0  501    0  0.00000000000E+00  0.00000000000E+00 -0.55906720101E+03  0.55906720102E+03  0.25500000920E-02 0.  1.
    10030    2    1    2    0    0  0.00000000000E+00  0.00000000000E+00  0.73300317233E+03  0.18511375744E+04  0.16998284233E+04 0.  0.
        3    1    3    3  502    0  0.12965680564E+03 -0.77632611934E+03  0.71576977773E+03  0.10638700652E+04  0.10100000352E+00 0. -1.
       -3    1    3    3    0  502 -0.12965680564E+03  0.77632611934E+03  0.17233394599E+02  0.78726750911E+03  0.10100000352E+00 0.  1.
</event>
<event>
 5   0  0.1393870E-04  0.1660738E+04  0.7818609E-02  0.8784079E-01
        2   -1    0    0  501    0  0.00000000000E+00  0.00000000000E+00  0.13680250517E+04  0.13680250517E+04  0.25500000920E-02 0.  1.
       -2   -1    0    0    0  501  0.00000000000E+00  0.00000000000E+00 -0.50402042772E+03  0.50402042773E+03  0.25500000920E-02 0. -1.
    10030    2    1    2    0    0  0.00000000000E+00  0.00000000000E+00  0.86400462396E+03  0.18720454794E+04  0.16607378742E+04 0.  0.
        3    1    3    3  502    0 -0.21398794106E+03  0.46450955532E+03  0.11694192986E+04  0.12763625943E+04  0.10100000352E+00 0.  1.
       -3    1    3    3    0  502  0.21398794106E+03 -0.46450955532E+03 -0.30541467468E+03  0.59568288511E+03  0.10100000352E+00 0. -1.
</event>
<event>
 5   0  0.4720875E-05  0.1690146E+04  0.7818609E-02  0.8767005E-01
        3   -1    0    0  501    0  0.00000000000E+00  0.00000000000E+00  0.56401942302E+03  0.56401943206E+03  0.10100000352E+00 0. -1.
       -3   -1    0    0    0  501  0.00000000000E+00  0.00000000000E+00 -0.12661767678E+04  0.12661767718E+04  0.10100000352E+00 0.  1.
    10030    2    1    2    0    0  0.00000000000E+00  0.00000000000E+00 -0.70215734475E+03  0.18301962039E+04  0.16901459132E+04 0.  0.
        3    1    3    3  502    0  0.64131367042E+03 -0.53412269913E+03 -0.49464688917E+03  0.97017824999E+03  0.10100000352E+00 0. -1.
       -3    1    3    3    0  502 -0.64131367042E+03  0.53412269913E+03 -0.20751045558E+03  0.86001795386E+03  0.10100000352E+00 0.  1.
</event>
<event>
 5   0  0.6834837E-05  0.1704948E+04  0.7818609E-02  0.8758547E-01
       -1   -1    0    0    0  501  0.00000000000E+00  0.00000000000E+00  0.58130950723E+03  0.58130950725E+03  0.50400001928E-02 0. -1.
        1   -1    0    0  501    0  0.00000000000E+00  0.00000000000E+00 -0.12501292068E+04  0.12501292069E+04  0.50400001928E-02 0.  1.
    10030    2    1    2    0    0  0.00000000000E+00  0.00000000000E+00 -0.66881969962E+03  0.18314387141E+04  0.17049480851E+04 0.  0.
        5    1    3    3  502    0  0.83699088985E+03 -0.14746134391E+03 -0.26322655901E+03  0.88972406340E+03  0.46999998093E+01 0. -1.
       -5    1    3    3    0  502 -0.83699088985E+03  0.14746134391E+03 -0.40559314061E+03  0.94171465070E+03  0.46999998093E+01 0.  1.
</event>
<event>
 5   0  0.1393870E-04  0.1690292E+04  0.7818609E-02  0.8766920E-01
       -2   -1    0    0    0  501  0.00000000000E+00  0.00000000000E+00  0.96073244923E+03  0.96073244923E+03  0.25500000920E-02 0. -1.
        2   -1    0    0  501    0  0.00000000000E+00  0.00000000000E+00 -0.74346610322E+03  0.74346610322E+03  0.25500000920E-02 0.  1.
    10030    2    1    2    0    0  0.00000000000E+00  0.00000000000E+00  0.21726634601E+03  0.17041985525E+04  0.16902922946E+04 0.  0.
        3    1    3    3  502    0  0.64217691745E+03  0.43272898753E+03  0.44998384641E+03  0.89561768751E+03  0.10100000352E+00 0.  1.
       -3    1    3    3    0  502 -0.64217691745E+03 -0.43272898753E+03 -0.23271750040E+03  0.80858086494E+03  0.10100000352E+00 0. -1.
</event>
<event>
 5   0  0.1269175E-04  0.1706895E+04  0.7818609E-02  0.8757442E-01
       -2   -1    0    0    0  501  0.00000000000E+00  0.00000000000E+00  0.11105352695E+04  0.11105352695E+04  0.25500000920E-02 0.  1.
        2   -1    0    0  501    0  0.00000000000E+00  0.00000000000E+00 -0.65587535518E+03  0.65587535519E+03  0.25500000920E-02 0. -1.
    10030    2    1    2    0    0  0.00000000000E+00  0.00000000000E+00  0.45465991432E+03  0.17664106247E+04  0.17068950927E+04 0.  0.
        2    1    3    3  502    0 -0.57023536805E+03 -0.50259977664E+03 -0.17427046238E+03  0.77983658835E+03  0.25500000920E-02 0. -1.
       -2    1    3    3    0  502  0.57023536805E+03  0.50259977664E+03  0.62893037670E+03  0.98657403635E+03  0.25500000920E-02 0.  1.
</event>
<event>
 5   0  0.1255362E-04  0.1705130E+04  0.7818609E-02  0.8758444E-01
       -2   -1    0    0    0  501  0.00000000000E+00  0.00000000000E+00  0.70307199973E+03  0.70307199974E+03  0.25500000920E-02 0. -1.
        2   -1    0    0  501    0  0.00000000000E+00  0.00000000000E+00 -0.10338440070E+04  0.10338440070E+04  0.25500000920E-02 0.  1.
    10030    2    1    2    0    0  0.00000000000E+00  0.00000000000E+00 -0.33077200727E+03  0.17369160067E+04  0.17051296413E+04 0.  0.
        1    1    3    3  502    0 -0.20110310720E+02 -0.53083942093E+03 -0.84465412919E+03  0.99781537039E+03  0.50400001928E-02 0.  1.
       -1    1    3    3    0  502  0.20110310720E+02  0.53083942093E+03  0.51388212191E+03  0.73910063635E+03  0.50400001928E-02 0. -1.
</event>
<event>
 5   0  0.6601906E-05  0.1683655E+04  0.7818609E-02  0.8770742E-01
       -1   -1    0    0    0  501  0.00000000000E+00  0.00000000000E+00  0.28704911011E+03  0.28704911015E+03  0.50400001928E-02 0.  1.
        1   -1    0    0  501    0  0.00000000000E+00  0.00000000000E+00 -0.24688244399E+04  0.24688244399E+04  0.50400001928E-02 0. -1.
    10030    2    1    2    0    0  0.00000000000E+00  0.00000000000E+00 -0.21817753297E+04  0.27558735500E+04  0.16836553787E+04 0.  0.
        1    1    3    3  502    0  0.57181459128E+03 -0.51136331134E+03 -0.52337511247E+03  0.92864733422E+03  0.50400001928E-02 0. -1.
       -1    1    3    3    0  502 -0.57181459128E+03  0.51136331134E+03 -0.16584002173E+04  0.18272262158E+04  0.50400001928E-02 0.  1.
</event>
<event>
 5   0  0.1285639E-04  0.1732223E+04  0.7818609E-02  0.8743197E-01
       -2   -1    0    0    0  501  0.00000000000E+00  0.00000000000E+00  0.72097448561E+03  0.72097448561E+03  0.25500000920E-02 0. -1.
        2   -1    0    0  501    0  0.00000000000E+00  0.00000000000E+00 -0.10404652294E+04  0.10404652294E+04  0.25500000920E-02 0.  1.
    10030    2    1    2    0    0  0.00000000000E+00  0.00000000000E+00 -0.31949074381E+03  0.17614397150E+04  0.17322227150E+04 0.  0.
        4    1    3    3  502    0  0.21750549892E+03  0.40959223698E+03  0.58407916999E+03  0.74580462078E+03  0.12699999809E+01 0. -1.
       -4    1    3    3    0  502 -0.21750549892E+03 -0.40959223698E+03 -0.90356991381E+03  0.10156350943E+04  0.12699999809E+01 0.  1.
</event>
<event>
 5   0  0.1285639E-04  0.1700287E+04  0.7818609E-02  0.8761201E-01
        2   -1    0    0  501    0  0.00000000000E+00  0.00000000000E+00  0.11203031232E+04  0.11203031232E+04  0.25500000920E-02 0.  1.
       -2   -1    0    0    0  501  0.00000000000E+00  0.00000000000E+00 -0.64513223116E+03  0.64513223117E+03  0.25500000920E-02 0. -1.
    10030    2    1    2    0    0  0.00000000000E+00  0.00000000000E+00  0.47517089202E+03  0.17654353543E+04  0.17002866269E+04 0.  0.
        4    1    3    3  502    0  0.56319766792E+03  0.59724525007E+03  0.80998305333E+01  0.82095110819E+03  0.12699999809E+01 0. -1.
       -4    1    3    3    0  502 -0.56319766792E+03 -0.59724525007E+03  0.46707106148E+03  0.94448424616E+03  0.12699999809E+01 0.  1.
</event>
<event>
 5   0  0.1333546E-04  0.1702068E+04  0.7818609E-02  0.8760186E-01
        2   -1    0    0  501    0  0.00000000000E+00  0.00000000000E+00  0.11690117357E+04  0.11690117357E+04  0.25500000920E-02 0. -1.
       -2   -1    0    0    0  501  0.00000000000E+00  0.00000000000E+00 -0.61954783323E+03  0.61954783324E+03  0.25500000920E-02 0.  1.
    10030    2    1    2    0    0  0.00000000000E+00  0.00000000000E+00  0.54946390250E+03  0.17885595690E+04  0.17020677870E+04 0.  0.
        5    1    3    3  502    0 -0.68799699747E+02  0.84815965572E+03  0.28663902594E+03  0.89793776035E+03  0.46999998093E+01 0. -1.
       -5    1    3    3    0  502  0.68799699747E+02 -0.84815965572E+03  0.26282487656E+03  0.89062180863E+03  0.46999998093E+01 0.  1.
</event>
<event>
 5   0  0.6564887E-05  0.1702510E+04  0.7818609E-02  0.8759934E-01
        1   -1    0    0  501    0  0.00000000000E+00  0.00000000000E+00  0.75379997236E+03  0.75379997238E+03  0.50400001928E-02 0. -1.
       -1   -1    0    0    0  501  0.00000000000E+00  0.00000000000E+00 -0.96130917637E+03  0.96130917638E+03  0.50400001928E-02 0.  1.
    10030    2    1    2    0    0  0.00000000000E+00  0.00000000000E+00 -0.20750920401E+03  0.17151091488E+04  0.17025097129E+04 0.  0.
        4    1    3    3  502    0 -0.21080452787E+03  0.46303486247E+03  0.58378674954E+03  0.77436968863E+03  0.12699999809E+01 0. -1.
       -4    1    3    3    0  502  0.21080452787E+03 -0.46303486247E+03 -0.79129595355E+03  0.94073946012E+03  0.12699999809E+01 0.  1.
</event>
<event>
 5   0  0.6539134E-05  0.1656102E+04  0.7818609E-02  0.8786805E-01
        1   -1    0    0  501    0  0.00000000000E+00  0.00000000000E+00  0.13464770909E+04  0.13464770909E+04  0.50400001928E-02 0.  1.
       -1   -1    0    0    0  501  0.00000000000E+00  0.00000000000E+00 -0.50923146215E+03  0.50923146217E+03  0.50400001928E-02 0. -1.
    10030    2    1    2    0    0  0.00000000000E+00  0.00000000000E+00  0.83724562877E+03  0.18557085531E+04  0.16561020473E+04 0.  0.
        2    1    3    3  502    0 -0.62163945079E+03  0.45172800531E+03  0.72935506714E+02  0.77188949060E+03  0.25500000920E-02 0. -1.
       -2    1    3    3    0  502  0.62163945079E+03 -0.45172800531E+03  0.76431012206E+03  0.10838190625E+04  0.25500000920E-02 0.  1.
</event>
<event>
 5   0  0.1393870E-04  0.1705244E+04  0.7818609E-02  0.8758379E-01
        2   -1    0    0  501    0  0.00000000000E+00  0.00000000000E+00  0.12272708387E+04  0.12272708387E+04  0.25500000920E-02 0. -1.
       -2   -1    0    0    0  501  0.00000000000E+00  0.00000000000E+00 -0.59234216924E+03  0.59234216924E+03  0.25500000920E-02 0.  1.
    10030    2    1    2    0    0  0.00000000000E+00  0.00000000000E+00  0.63492866949E+03  0.18196130080E+04  0.17052439953E+04 0.  0.
        3    1    3    3  502    0  0.65814143828E+03  0.25133526381E+03 -0.19500069769E+03  0.73098895334E+03  0.10100000352E+00 0.  1.
       -3    1    3    3    0  502 -0.65814143828E+03 -0.25133526381E+03  0.82992936718E+03  0.10886240546E+04  0.10100000352E+00 0. -1.
</event>
<event>
 5   0  0.1285639E-04  0.1694571E+04  0.7818609E-02  0.8764467E-01
       -2   -1    0    0    0  501  0.00000000000E+00  0.00000000000E+00  0.97053934279E+03  0.97053934279E+03  0.25500000920E-02 0.  1.
        2   -1    0    0  501    0  0.00000000000E+00  0.00000000000E+00 -0.73968428297E+03  0.73968428297E+03  0.25500000920E-02 0. -1.
    10030    2    1    2    0    0  0.00000000000E+00  0.00000000000E+00  0.23085505982E+03  0.17102236258E+04  0.16945709756E+04 0.  0.
        4    1    3    3  502    0  0.37332374711E+03 -0.58436509710E+03  0.60679005598E+03  0.92143853393E+03  0.12699999809E+01 0.  1.
       -4    1    3    3    0  502 -0.37332374711E+03  0.58436509710E+03 -0.37593499616E+03  0.78878509184E+03  0.12699999809E+01 0. -1.
</event>
<event>
 5   0  0.1285639E-04  0.1697208E+04  0.7818609E-02  0.8762958E-01
        2   -1    0    0  501    0  0.00000000000E+00  0.00000000000E+00  0.10547761853E+04  0.10547761853E+04  0.25500000920E-02 0. -1.
       -2   -1    0    0    0  501  0.00000000000E+00  0.00000000000E+00 -0.68273117077E+03  0.68273117077E+03  0.25500000920E-02 0.  1.
    10030    2    1    2    0    0  0.00000000000E+00  0.00000000000E+00  0.37204501451E+03  0.17375073561E+04  0.16972078009E+04 0.  0.
        4    1    3    3  502    0  0.52319273211E+03 -0.25752537259E+03 -0.44512000719E+03  0.73360983238E+03  0.12699999809E+01 0.  1.
       -4    1    3    3    0  502 -0.52319273211E+03  0.25752537259E+03  0.81716502169E+03  0.10038975237E+04  0.12699999809E+01 0. -1.
</event>
<event>
 5   0  0.6615842E-05  0.1704053E+04  0.7818609E-02  0.8759056E-01
        1   -1    0    0  501    0  0.00000000000E+00  0.00000000000E+00  0.12714863705E+04  0.12714863705E+04  0.50400001928E-02 0.  1.
       -1   -1    0    0    0  501  0.00000000000E+00  0.00000000000E+00 -0.57094555162E+03  0.57094555164E+03  0.50400001928E-02 0. -1.
    10030    2    1    2    0    0  0.00000000000E+00  0.00000000000E+00  0.70054081883E+03  0.18424319221E+04  0.17040533879E+04 0.  0.
        3    1    3    3  502    0  0.42876787869E+03 -0.27030983695E+03 -0.39020949060E+03  0.63966613049E+03  0.10100000352E+00 0. -1.
       -3    1    3    3    0  502 -0.42876787869E+03  0.27030983695E+03  0.10907503094E+04  0.12027657916E+04  0.10100000352E+00 0.  1.
</event>
<event>
 5   0  0.6601906E-05  0.1673864E+04  0.7818609E-02  0.8776412E-01
       -1   -1    0    0    0  501  0.00000000000E+00  0.00000000000E+00  0.67150238256E+03  0.67150238258E+03  0.50400001928E-02 0.  1.
        1   -1    0    0  501    0  0.00000000000E+00  0.00000000000E+00 -0.10431169950E+04  0.10431169950E+04  0.50400001928E-02 0. -1.
    10030    2    1    2    0    0  0.00000000000E+00  0.00000000000E+00 -0.37161461243E+03  0.17146193776E+04  0.16738644479E+04 0.  0.
        1    1    3    3  502    0 -0.57457451755E+03  0.59047435877E+03 -0.35051624330E+02  0.82463595664E+03  0.50400001928E-02 0. -1.
       -1    1    3    3    0  502  0.57457451755E+03 -0.59047435877E+03 -0.33656298810E+03  0.88998342095E+03  0.50400001928E-02 0.  1.
</event>
<event>
 5   0  0.6564887E-05  0.1697655E+04  0.7818609E-02  0.8762703E-01
       -1   -1    0    0    0  501  0.00000000000E+00  0.00000000000E+00  0.11707820913E+04  0.11707820913E+04  0.50400001928E-02 0. -1.
        1   -1    0    0  501    0  0.00000000000E+00  0.00000000000E+00 -0.61540783501E+03  0.61540783503E+03  0.50400001928E-02 0.  1.
    10030    2    1    2    0    0  0.00000000000E+00  0.00000000000E+00  0.55537425630E+03  0.17861899264E+04  0.16976554092E+04 0.  0.
        4    1    3    3  502    0  0.77548649959E+03 -0.84905783183E+02 -0.74301913962E+02  0.78365214884E+03  0.12699999809E+01 0.  1.
       -4    1    3    3    0  502 -0.77548649959E+03  0.84905783183E+02  0.62967617026E+03  0.10025377775E+04  0.12699999809E+01 0. -1.
</event>
<event>
 5   0  0.1255362E-04  0.1706546E+04  0.7818609E-02  0.8757640E-01
       -2   -1    0    0    0  501  0.00000000000E+00  0.00000000000E+00  0.12199666725E+04  0.12199666725E+04  0.25500000920E-02 0.  1.
        2   -1    0    0  501    0  0.00000000000E+00  0.00000000000E+00 -0.59679888859E+03  0.59679888859E+03  0.25500000920E-02 0. -1.
    10030    2    1    2    0    0  0.00000000000E+00  0.00000000000E+00  0.62316778392E+03  0.18167655611E+04  0.17065459317E+04 0.  0.
        1    1    3    3  502    0 -0.17257618290E+03 -0.69158643857E+03  0.81091963594E+03  0.10796596672E+04  0.50400001928E-02 0.  1.
       -1    1    3    3    0  502  0.17257618290E+03  0.69158643857E+03 -0.18775185202E+03  0.73710589394E+03  0.50400001928E-02 0. -1.
</event>
<event>
 5   0  0.1285639E-04  0.1699295E+04  0.7818609E-02  0.8761767E-01
       -2   -1    0    0    0  501  0.00000000000E+00  0.00000000000E+00  0.97646896180E+03  0.97646896180E+03  0.25500000920E-02 0. -1.
        2   -1    0    0  501    0  0.00000000000E+00  0.00000000000E+00 -0.73929723439E+03  0.73929723439E+03  0.25500000920E-02 0.  1.
    10030    2    1    2    0    0  0.00000000000E+00  0.00000000000E+00  0.23717172741E+03  0.17157661962E+04  0.16992949161E+04 0.  0.
        4    1    3    3  502    0  0.57697292435E+03  0.22299144164E+02 -0.51075683561E+03  0.77088855568E+03  0.12699999809E+01 0.  1.
       -4    1    3    3    0  502 -0.57697292435E+03 -0.22299144164E+02  0.74792856302E+03  0.94487764051E+03  0.12699999809E+01 0. -1.
</event>
<event>
 5   0  0.6834837E-05  0.1727794E+04  0.7818609E-02  0.8745670E-01
       -1   -1    0    0    0  501  0.00000000000E+00  0.00000000000E+00  0.36401891424E+03  0.36401891428E+03  0.50400001928E-02 0. -1.
        1   -1    0    0  501    0  0.00000000000E+00  0.00000000000E+00 -0.20502166336E+04  0.20502166336E+04  0.50400001928E-02 0.  1.
    10030    2    1    2    0    0  0.00000000000E+00  0.00000000000E+00 -0.16861977194E+04  0.24142355479E+04  0.17277935444E+04 0.  0.
        5    1    3    3  502    0  0.59487089271E+03  0.14388388772E+03 -0.16950146871E+04  0.18021295268E+04  0.46999998093E+01 0.  1.
       -5    1    3    3    0  502 -0.59487089271E+03 -0.14388388772E+03  0.88169676696E+01  0.61210602109E+03  0.46999998093E+01 0. -1.
</event>
<event>
 5   0  0.1255362E-04  0.1754646E+04  0.7818609E-02  0.8730797E-01
       -2   -1    0    0    0  501  0.00000000000E+00  0.00000000000E+00  0.62489989951E+03  0.62489989951E+03  0.25500000920E-02 0. -1.
        2   -1    0    0  501    0  0.00000000000E+00  0.00000000000E+00 -0.12317105406E+04  0.12317105406E+04  0.25500000920E-02 0.  1.
    10030    2    1    2    0    0  0.00000000000E+00  0.00000000000E+00 -0.60681064113E+03  0.18566104402E+04  0.17546461673E+04 0.  0.
        1    1    3    3  502    0 -0.34548620142E+03  0.28270133139E+03  0.49574176179E+03  0.66711367288E+03  0.50400001928E-02 0. -1.
       -1    1    3    3    0  502  0.34548620142E+03 -0.28270133139E+03 -0.11025524029E+04  0.11894967673E+04  0.50400001928E-02 0.  1.
</event>
<event>
 5   0  0.6615842E-05  0.1696613E+04  0.7818609E-02  0.8763298E-01
        1   -1    0    0  501    0  0.00000000000E+00  0.00000000000E+00  0.60817539148E+03  0.60817539150E+03  0.50400001928E-02 0.  1.
       -1   -1    0    0    0  501  0.00000000000E+00  0.00000000000E+00 -0.11832508976E+04  0.11832508976E+04  0.50400001928E-02 0. -1.
    10030    2    1    2    0    0  0.00000000000E+00  0.00000000000E+00 -0.57507550616E+03  0.17914262891E+04  0.16966131886E+04 0.  0.
        3    1    3    3  502    0 -0.77375401147E+03 -0.34771399251E+03 -0.29268640323E+03  0.89736594079E+03  0.10100000352E+00 0. -1.
       -3    1    3    3    0  502  0.77375401147E+03  0.34771399251E+03 -0.28238910293E+03  0.89406034836E+03  0.10100000352E+00 0.  1.
</event>
<event>
 5   0  0.4720875E-05  0.1699028E+04  0.7818609E-02  0.8761919E-01
       -3   -1    0    0    0  501  0.00000000000E+00  0.00000000000E+00  0.10878662913E+04  0.10878662960E+04  0.10100000352E+00 0.  1.
        3   -1    0    0  501    0  0.00000000000E+00  0.00000000000E+00 -0.66338478486E+03  0.66338479255E+03  0.10100000352E+00 0. -1.
    10030    2    1    2    0    0  0.00000000000E+00  0.00000000000E+00  0.42448150641E+03  0.17512510885E+04  0.16990279061E+04 0.  0.
        2    1    3    3  502    0 -0.72383686228E+03  0.23770217252E+03 -0.17511873652E+03  0.78173441647E+03  0.25500000920E-02 0. -1.
       -2    1    3    3    0  502  0.72383686228E+03 -0.23770217252E+03  0.59960024293E+03  0.96951667203E+03  0.25500000920E-02 0.  1.
</event>
<event>
 5   0  0.6834837E-05  0.1690320E+04  0.7818609E-02  0.8766905E-01
        1   -1    0    0  501    0  0.00000000000E+00  0.00000000000E+00  0.95728672888E+03  0.95728672889E+03  0.50400001928E-02 0.  1.
       -1   -1    0    0    0  501  0.00000000000E+00  0.00000000000E+00 -0.74616660855E+03  0.74616660857E+03  0.50400001928E-02 0. -1.
    10030    2    1    2    0    0  0.00000000000E+00  0.00000000000E+00  0.21112012032E+03  0.17034533375E+04  0.16903199602E+04 0.  0.
        5    1    3    3  502    0 -0.32284857774E+03  0.93769825179E+02  0.88698743244E+03  0.94857407701E+03  0.46999998093E+01 0.  1.
       -5    1    3    3    0  502  0.32284857774E+03 -0.93769825179E+02 -0.67586731212E+03  0.75487926045E+03  0.46999998093E+01 0. -1.
</event>
<event>
 5   0  0.4720875E-05  0.1707068E+04  0.7818609E-02  0.8757343E-01
       -4   -1    0    0    0  501  0.00000000000E+00  0.00000000000E+00  0.12734303883E+04  0.12734310216E+04  0.12699999809E+01 0.  1.
        4   -1    0    0  501    0  0.00000000000E+00  0.00000000000E+00 -0.57209151076E+03  0.57209292041E+03  0.12699999809E+01 0. -1.
    10030    2    1    2    0    0  0.00000000000E+00  0.00000000000E+00  0.70133887755E+03  0.18455239420E+04  0.17070683640E+04 0.  0.
        1    1    3    3  502    0 -0.37366522876E+03  0.62662616832E+02  0.11775350554E+04  0.12369887281E+04  0.50400001928E-02 0.  1.
       -1    1    3    3    0  502  0.37366522876E+03 -0.62662616832E+02 -0.47619617786E+03  0.60853521390E+03  0.50400001928E-02 0. -1.
</event>
<event>
 5   0  0.1333546E-04  0.1726647E+04  0.7818609E-02  0.8746311E-01
        2   -1    0    0  501    0  0.00000000000E+00  0.00000000000E+00  0.98437432276E+03  0.98437432277E+03  0.25500000920E-02 0. -1.
       -2   -1    0    0    0  501  0.00000000000E+00  0.00000000000E+00 -0.75715833886E+03  0.75715833886E+03  0.25500000920E-02 0.  1.
    10030    2    1    2    0    0  0.00000000000E+00  0.00000000000E+00  0.22721598390E+03  0.17415326616E+04  0.17266467236E+04 0.  0.
        5    1    3    3  502    0  0.33110596392E+03  0.79314504932E+03  0.19551716102E+03  0.88145293627E+03  0.46999998093E+01 0.  1.
       -5    1    3    3    0  502 -0.33110596392E+03 -0.79314504932E+03  0.31698822882E+02  0.86007972536E+03  0.46999998093E+01 0. -1.
</event>
<event>
 5   0  0.1285639E-04  0.1697279E+04  0.7818609E-02  0.8762918E-01
        2   -1    0    0  501    0  0.00000000000E+00  0.00000000000E+00  0.11187658556E+04  0.11187658556E+04  0.25500000920E-02 0.  1.
       -2   -1    0    0    0  501  0.00000000000E+00  0.00000000000E+00 -0.64373555769E+03  0.64373555770E+03  0.25500000920E-02 0. -1.
    10030    2    1    2    0    0  0.00000000000E+00  0.00000000000E+00  0.47503029788E+03  0.17625014133E+04  0.16972794254E+04 0.  0.
        4    1    3    3  502    0  0.18630603367E+03 -0.55874060569E+03 -0.39693486680E+03  0.71025340831E+03  0.12699999809E+01 0. -1.
       -4    1    3    3    0  502 -0.18630603367E+03  0.55874060569E+03  0.87196516468E+03  0.10522480050E+04  0.12699999809E+01 0.  1.
</event>
<event>
 5   0  0.6601906E-05  0.1681205E+04  0.7818609E-02  0.8772157E-01
       -1   -1    0    0    0  501  0.00000000000E+00  0.00000000000E+00  0.51497802318E+03  0.51497802320E+03  0.50400001928E-02 0. -1.
        1   -1    0    0  501    0  0.00000000000E+00  0.00000000000E+00 -0.13721225551E+04  0.13721225551E+04  0.50400001928E-02 0.  1.
    10030    2    1    2    0    0  0.00000000000E+00  0.00000000000E+00 -0.85714453190E+03  0.18871005783E+04  0.16812054735E+04 0.  0.
        1    1    3    3  502    0  0.64711883816E+03 -0.97937348816E+02 -0.10206768592E+04  0.12124915529E+04  0.50400001928E-02 0.  1.
       -1    1    3    3    0  502 -0.64711883816E+03  0.97937348816E+02  0.16353232731E+03  0.67460902536E+03  0.50400001928E-02 0. -1.
</event>
<event>
 5   0  0.1333546E-04  0.1757750E+04  0.7818609E-02  0.8729096E-01
        2   -1    0    0  501    0  0.00000000000E+00  0.00000000000E+00  0.11050706246E+04  0.11050706246E+04  0.25500000920E-02 0. -1.
       -2   -1    0    0    0  501  0.00000000000E+00  0.00000000000E+00 -0.69897870168E+03  0.69897870168E+03  0.25500000920E-02 0.  1.
    10030    2    1    2    0    0  0.00000000000E+00  0.00000000000E+00  0.40609192290E+03  0.18040493263E+04  0.17577495048E+04 0.  0.
        5    1    3    3  502    0 -0.83968811411E+03 -0.20597921941E+03  0.36498404474E+03  0.93847696334E+03  0.46999998093E+01 0. -1.
       -5    1    3    3    0  502  0.83968811411E+03  0.20597921941E+03  0.41107878157E+02  0.86557236292E+03  0.46999998093E+01 0.  1.
</event>
<event>
 5   0  0.6834837E-05  0.1683323E+04  0.7818609E-02  0.8770934E-01
        1   -1    0    0  501    0  0.00000000000E+00  0.00000000000E+00  0.87142799552E+03  0.87142799553E+03  0.50400001928E-02 0. -1.
       -1   -1    0    0    0  501  0.00000000000E+00  0.00000000000E+00 -0.81291155464E+03  0.81291155466E+03  0.50400001928E-02 0.  1.
    10030    2    1    2    0    0  0.00000000000E+00  0.00000000000E+00  0.58516440876E+02  0.16843395502E+04  0.16833227696E+04 0.  0.
        5    1    3    3  502    0  0.48378952362E+03 -0.13652747705E+03 -0.64619007360E+03  0.81870370487E+03  0.46999998093E+01 0.  1.
       -5    1    3    3    0  502 -0.48378952362E+03  0.13652747705E+03  0.70470651448E+03  0.86563584532E+03  0.46999998093E+01 0. -1.
</event>
<event>
 5   0  0.1393870E-04  0.1702593E+04  0.7818609E-02  0.8759887E-01
        2   -1    0    0  501    0  0.00000000000E+00  0.00000000000E+00  0.75399175916E+03  0.75399175917E+03  0.25500000920E-02 0.  1.
       -2   -1    0    0    0  501  0.00000000000E+00  0.00000000000E+00 -0.96115917745E+03  0.96115917745E+03  0.25500000920E-02 0. -1.
    10030    2    1    2    0    0  0.00000000000E+00  0.00000000000E+00 -0.20716741828E+03  0.17151509366E+04  0.17025934324E+04 0.  0.
        3    1    3    3  502    0 -0.22452902976E+02 -0.82788220949E+03  0.94879502477E+02  0.83360375229E+03  0.10100000352E+00 0.  1.
       -3    1    3    3    0  502  0.22452902976E+02  0.82788220949E+03 -0.30204692076E+03  0.88154718432E+03  0.10100000352E+00 0. -1.
</event>
<event>
 5   0  0.1333546E-04  0.1700204E+04  0.7818609E-02  0.8761248E-01
        2   -1    0    0  501    0  0.00000000000E+00  0.00000000000E+00  0.73377796710E+03  0.73377796710E+03  0.25500000920E-02 0. -1.
       -2   -1    0    0    0  501  0.00000000000E+00  0.00000000000E+00 -0.98486715638E+03  0.98486715638E+03  0.25500000920E-02 0.  1.
    10030    2    1    2    0    0  0.00000000000E+00  0.00000000000E+00 -0.25108918928E+03  0.17186451235E+04  0.17002044817E+04 0.  0.
        5    1    3    3  502    0  0.77659985405E+03  0.26632940793E+03  0.97330457218E+02  0.82676114734E+03  0.46999998093E+01 0. -1.
       -5    1    3    3    0  502 -0.77659985405E+03 -0.26632940793E+03 -0.34841964650E+03  0.89188397615E+03  0.46999998093E+01 0.  1.
</event>
<event>
 5   0  0.6564887E-05  0.1698555E+04  0.7818609E-02  0.8762189E-01
       -1   -1    0    0    0  501  0.00000000000E+00  0.00000000000E+00  0.43202174575E+03  0.43202174578E+03  0.50400001928E-02 0.  1.
        1   -1    0    0  501    0  0.00000000000E+00  0.00000000000E+00 -0.16695269769E+04  0.16695269769E+04  0.50400001928E-02 0. -1.
    10030    2    1    2    0    0  0.00000000000E+00  0.00000000000E+00 -0.12375052311E+04  0.21015487227E+04  0.16985546316E+04 0.  0.
        4    1    3    3  502    0  0.84472372156E+03 -0.26905734197E+02 -0.51532309024E+03  0.98986947854E+03  0.12699999809E+01 0. -1.
       -4    1    3    3    0  502 -0.84472372156E+03  0.26905734197E+02 -0.72218214090E+03  0.11116792441E+04  0.12699999809E+01 0.  1.
</event>
<event>
 5   0  0.1393870E-04  0.1696497E+04  0.7818609E-02  0.8763365E-01
       -2   -1    0    0    0  501  0.00000000000E+00  0.00000000000E+00  0.61515283081E+03  0.61515283082E+03  0.25500000920E-02 0.  1.
        2   -1    0    0  501    0  0.00000000000E+00  0.00000000000E+00 -0.11696694045E+04  0.11696694045E+04  0.25500000920E-02 0. -1.
    10030    2    1    2    0    0  0.00000000000E+00  0.00000000000E+00 -0.55451657365E+03  0.17848222353E+04  0.16964969146E+04 0.  0.
        3    1    3    3  502    0 -0.10053431592E+03 -0.35378207334E+03  0.52690396216E+03  0.64257038496E+03  0.10100000352E+00 0.  1.
       -3    1    3    3    0  502  0.10053431592E+03  0.35378207334E+03 -0.10814205358E+04  0.11422518503E+04  0.10100000352E+00 0. -1.
</event>
<event>
 5   0  0.1269175E-04  0.1686419E+04  0.7818609E-02  0.8769148E-01
        2   -1    0    0  501    0  0.00000000000E+00  0.00000000000E+00  0.12212101210E+04  0.12212101210E+04  0.25500000920E-02 0.  1.
       -2   -1    0    0    0  501  0.00000000000E+00  0.00000000000E+00 -0.58221140896E+03  0.58221140897E+03  0.25500000920E-02 0. -1.
    10030    2    1    2    0    0  0.00000000000E+00  0.00000000000E+00  0.63899871199E+03  0.18034215299E+04  0.16864192423E+04 0.  0.
        2    1    3    3  502    0 -0.71909156588E+03 -0.38655746944E+03  0.54504230900E+03  0.98162644417E+03  0.25500000920E-02 0.  1.
       -2    1    3    3    0  502  0.71909156588E+03  0.38655746944E+03  0.93956402994E+02  0.82179508575E+03  0.25500000920E-02 0. -1.
</event>
<event>
 5   0  0.1285639E-04  0.1699663E+04  0.7818609E-02  0.8761556E-01
        2   -1    0    0  501    0  0.00000000000E+00  0.00000000000E+00  0.14747651447E+04  0.14747651447E+04  0.25500000920E-02 0. -1.
       -2   -1    0    0    0  501  0.00000000000E+00  0.00000000000E+00 -0.48971440821E+03  0.48971440821E+03  0.25500000920E-02 0.  1.
    10030    2    1    2    0    0  0.00000000000E+00  0.00000000000E+00  0.98505073644E+03  0.19644795529E+04  0.16996631902E+04 0.  0.
        4    1    3    3  502    0 -0.27884570120E+03 -0.35321231078E+03  0.13257465035E+04  0.14000425943E+04  0.12699999809E+01 0. -1.
       -4    1    3    3    0  502  0.27884570120E+03  0.35321231078E+03 -0.34069576704E+03  0.56443695852E+03  0.12699999809E+01 0.  1.
</event>
<event>
 5   0  0.1333546E-04  0.1757685E+04  0.7818609E-02  0.8729132E-01
       -2   -1    0    0    0  501  0.00000000000E+00  0.00000000000E+00  0.81849320414E+03  0.81849320414E+03  0.25500000920E-02 0. -1.
        2   -1    0    0  501    0  0.00000000000E+00  0.00000000000E+00 -0.94364138846E+03  0.94364138846E+03  0.25500000920E-02 0.  1.
    10030    2    1    2    0    0  0.00000000000E+00  0.00000000000E+00 -0.12514818432E+03  0.17621345926E+04  0.17576849133E+04 0.  0.
        5    1    3    3  502    0 -0.86307776845E+03  0.87658786060E+02 -0.20348123613E+03  0.89107463246E+03  0.46999998093E+01 0. -1.
       -5    1    3    3    0  502  0.86307776845E+03 -0.87658786060E+02  0.78333051810E+02  0.87105996014E+03  0.46999998093E+01 0.  1.
</event>
<event>
 5   0  0.1255362E-04  0.1700630E+04  0.7818609E-02  0.8761005E-01
        2   -1    0    0  501    0  0.00000000000E+00  0.00000000000E+00  0.16191647601E+04  0.16191647601E+04  0.25500000920E-02 0. -1.
       -2   -1    0    0    0  501  0.00000000000E+00  0.00000000000E+00 -0.44654872519E+03  0.44654872519E+03  0.25500000920E-02 0.  1.
    10030    2    1    2    0    0  0.00000000000E+00  0.00000000000E+00  0.11726160350E+04  0.20657134853E+04  0.17006304237E+04 0.  0.
        1    1    3    3  502    0 -0.60533333097E+03 -0.69798248772E+02 -0.13408314980E+03  0.62392189270E+03  0.50400001928E-02 0.  1.
       -1    1    3    3    0  502  0.60533333097E+03  0.69798248772E+02  0.13066991848E+04  0.14417915926E+04  0.50400001928E-02 0. -1.
</event>
<event>
 5   0  0.1255362E-04  0.1690100E+04  0.7818609E-02  0.8767031E-01
       -2   -1    0    0    0  501  0.00000000000E+00  0.00000000000E+00  0.46909836998E+03  0.46909836999E+03  0.25500000920E-02 0. -1.
        2   -1    0    0  501    0  0.00000000000E+00  0.00000000000E+00 -0.15223016464E+04  0.15223016464E+04  0.25500000920E-02 0.  1.
    10030    2    1    2    0    0  0.00000000000E+00  0.00000000000E+00 -0.10532032765E+04  0.19914000164E+04  0.16900996668E+04 0.  0.
        1    1    3    3  502    0 -0.73093440840E+03 -0.11231631485E+03 -0.44762370158E+02  0.74086687992E+03  0.50400001928E-02 0. -1.
       -1    1    3    3    0  502  0.73093440840E+03  0.11231631485E+03 -0.10084409063E+04  0.12505331365E+04  0.50400001928E-02 0.  1.
</event>
<event>
 5   0  0.6601906E-05  0.1692666E+04  0.7818609E-02  0.8765558E-01
       -1   -1    0    0    0  501  0.00000000000E+00  0.00000000000E+00  0.15901653249E+04  0.15901653249E+04  0.50400001928E-02 0. -1.
        1   -1    0    0  501    0  0.00000000000E+00  0.00000000000E+00 -0.45044334978E+03  0.45044334980E+03  0.50400001928E-02 0.  1.
    10030    2    1    2    0    0  0.00000000000E+00  0.00000000000E+00  0.11397219751E+04  0.20406086747E+04  0.16926658213E+04 0.  0.
        1    1    3    3  502    0 -0.63344650913E+03  0.78850772596E+02 -0.10007360460E+03  0.64613206903E+03  0.50400001928E-02 0.  1.
       -1    1    3    3    0  502  0.63344650913E+03 -0.78850772596E+02  0.12397955797E+04  0.13944766057E+04  0.50400001928E-02 0. -1.
</event>
<event>
 5   0  0.6539134E-05  0.1698357E+04  0.7818609E-02  0.8762302E-01
        1   -1    0    0  501    0  0.00000000000E+00  0.00000000000E+00  0.13772015218E+04  0.13772015218E+04  0.50400001928E-02 0.  1.
       -1   -1    0    0    0  501  0.00000000000E+00  0.00000000000E+00 -0.52360095274E+03  0.52360095277E+03  0.50400001928E-02 0. -1.
    10030    2    1    2    0    0  0.00000000000E+00  0.00000000000E+00  0.85360056905E+03  0.19008024746E+04  0.16983568871E+04 0.  0.
        2    1    3    3  502    0  0.30214185642E+03 -0.75240992564E+03  0.14434088144E+03  0.82355612296E+03  0.25500000920E-02 0. -1.
       -2    1    3    3    0  502 -0.30214185642E+03  0.75240992564E+03  0.70925968761E+03  0.10772463516E+04  0.25500000920E-02 0.  1.
</event>
<event>
 5   0  0.1255362E-04  0.1703211E+04  0.7818609E-02  0.8759535E-01
       -2   -1    0    0    0  501  0.00000000000E+00  0.00000000000E+00  0.47034658463E+03  0.47034658463E+03  0.25500000920E-02 0.  1.
        2   -1    0    0  501    0  0.00000000000E+00  0.00000000000E+00 -0.15419103959E+04  0.15419103959E+04  0.25500000920E-02 0. -1.
    10030    2    1    2    0    0  0.00000000000E+00  0.00000000000E+00 -0.10715638113E+04  0.20122569806E+04  0.17032114238E+04 0.  0.
        1    1    3    3  502    0 -0.59266601063E+02 -0.56955790611E+03 -0.12804916473E+04  0.14027001095E+04  0.50400001928E-02 0. -1.
       -1    1    3    3    0  502  0.59266601063E+02  0.56955790611E+03  0.20892783596E+03  0.60955687108E+03  0.50400001928E-02 0.  1.
</event>
<event>
 5   0  0.6834837E-05  0.1702214E+04  0.7818609E-02  0.8760103E-01
        1   -1    0    0  501    0  0.00000000000E+00  0.00000000000E+00  0.73646792943E+03  0.73646792945E+03  0.50400001928E-02 0.  1.
       -1   -1    0    0    0  501  0.00000000000E+00  0.00000000000E+00 -0.98359030996E+03  0.98359030997E+03  0.50400001928E-02 0. -1.
    10030    2    1    2    0    0  0.00000000000E+00  0.00000000000E+00 -0.24712238052E+03  0.17200582394E+04  0.17022135225E+04 0.  0.
        5    1    3    3  502    0 -0.18045511558E+03  0.37225589664E+02  0.71605908049E+03  0.73940008792E+03  0.46999998093E+01 0.  1.
       -5    1    3    3    0  502  0.18045511558E+03 -0.37225589664E+02 -0.96318146101E+03  0.98065815150E+03  0.46999998093E+01 0. -1.
</event>
<event>
 5   0  0.1333546E-04  0.1699316E+04  0.7818609E-02  0.8761755E-01
        2   -1    0    0  501    0  0.00000000000E+00  0.00000000000E+00  0.91627801236E+03  0.91627801236E+03  0.25500000920E-02 0.  1.
       -2   -1    0    0    0  501  0.00000000000E+00  0.00000000000E+00 -0.78788165804E+03  0.78788165804E+03  0.25500000920E-02 0. -1.
    10030    2    1    2    0    0  0.00000000000E+00  0.00000000000E+00  0.12839635432E+03  0.17041596704E+04  0.16993159090E+04 0.  0.
        5    1    3    3  502    0 -0.35663609134E+03 -0.41302453062E+03 -0.58890155370E+03  0.80287339880E+03  0.46999998093E+01 0. -1.
       -5    1    3    3    0  502  0.35663609134E+03  0.41302453062E+03  0.71729790802E+03  0.90128627161E+03  0.46999998093E+01 0.  1.
</event>
<event>
 5   0  0.6615842E-05  0.1700642E+04  0.7818609E-02  0.8760998E-01
       -1   -1    0    0    0  501  0.00000000000E+00  0.00000000000E+00  0.58422011496E+03  0.58422011498E+03  0.50400001928E-02 0. -1.
        1   -1    0    0  501    0  0.00000000000E+00  0.00000000000E+00 -0.12376258679E+04  0.12376258679E+04  0.50400001928E-02 0.  1.
    10030    2    1    2    0    0  0.00000000000E+00  0.00000000000E+00 -0.65340575293E+03  0.18218459829E+04  0.17006421456E+04 0.  0.
        3    1    3    3  502    0 -0.68511171960E+03 -0.37501412404E+03 -0.68686655869E+03  0.10400958327E+04  0.10100000352E+00 0.  1.
       -3    1    3    3    0  502  0.68511171960E+03  0.37501412404E+03  0.33460805759E+02  0.78175015017E+03  0.10100000352E+00 0. -1.
</event>
<event>
 5   0  0.1269175E-04  0.1697994E+04  0.7818609E-02  0.8762509E-01
       -2   -1    0    0    0  501  0.00000000000E+00  0.00000000000E+00  0.41151825300E+03  0.41151825300E+03  0.25500000920E-02 0.  1.
        2   -1    0    0  501    0  0.00000000000E+00  0.00000000000E+00 -0.17515525787E+04  0.17515525787E+04  0.25500000920E-02 0. -1.
    10030    2    1    2    0    0  0.00000000000E+00  0.00000000000E+00 -0.13400343257E+04  0.21630708317E+04  0.16979939426E+04 0.  0.
        2    1    3    3  502    0 -0.25637378968E+03  0.22620202149E+03 -0.16599767653E+04  0.16948208566E+04  0.25500000920E-02 0. -1.
       -2    1    3    3    0  502  0.25637378968E+03 -0.22620202149E+03  0.31994243959E+03  0.46824997514E+03  0.25500000920E-02 0.  1.
</event>
<event>
 5   0  0.6564887E-05  0.1696103E+04  0.7818609E-02  0.8763590E-01
        1   -1    0    0  501    0  0.00000000000E+00  0.00000000000E+00  0.73065795012E+03  0.73065795014E+03  0.50400001928E-02 0. -1.
       -1   -1    0    0    0  501  0.00000000000E+00  0.00000000000E+00 -0.98430664084E+03  0.98430664085E+03  0.50400001928E-02 0.  1.
    10030    2    1    2    0    0  0.00000000000E+00  0.00000000000E+00 -0.25364869072E+03  0.17149645910E+04  0.16961031484E+04 0.  0.
        4    1    3    3  502    0  0.32922613164E+03  0.71413350710E+03  0.19421770172E+03  0.80999916067E+03  0.12699999809E+01 0. -1.
       -4    1    3    3    0  502 -0.32922613164E+03 -0.71413350710E+03 -0.44786639244E+03  0.90496543033E+03  0.12699999809E+01 0.  1.
</event>
<event>
 5   0  0.6834837E-05  0.1619888E+04  0.7818609E-02  0.8808422E-01
       -1   -1    0    0    0  501  0.00000000000E+00  0.00000000000E+00  0.59774395434E+03  0.59774395436E+03  0.50400001928E-02 0.  1.
        1   -1    0    0  501    0  0.00000000000E+00  0.00000000000E+00 -0.10974756056E+04  0.10974756056E+04  0.50400001928E-02 0. -1.
    10030    2    1    2    0    0  0.00000000000E+00  0.00000000000E+00 -0.49973165128E+03  0.16952195600E+04  0.16198881546E+04 0.  0.
        5    1    3    3  502    0 -0.13964519085E+01  0.33151399509E+03 -0.10232060272E+04  0.10755817696E+04  0.46999998093E+01 0. -1.
       -5    1    3    3    0  502  0.13964519085E+01 -0.33151399509E+03  0.52347437593E+03  0.61963779038E+03  0.46999998093E+01 0.  1.
</event>
<event>
 5   0  0.6601906E-05  0.1694417E+04  0.7818609E-02  0.8764555E-01
       -1   -1    0    0    0  501  0.00000000000E+00  0.00000000000E+00  0.37597387366E+03  0.37597387370E+03  0.50400001928E-02 0. -1.
        1   -1    0    0  501    0  0.00000000000E+00  0.00000000000E+00 -0.19090744919E+04  0.19090744920E+04  0.50400001928E-02 0.  1.
    10030    2    1    2    0    0  0.00000000000E+00  0.00000000000E+00 -0.15331006183E+04  0.22850483656E+04  0.16944168695E+04 0.  0.
        1    1    3    3  502    0  0.49440590244E+03  0.57511836572E+03 -0.12757401885E+04  0.14841534151E+04  0.50400001928E-02 0.  1.
       -1    1    3    3    0  502 -0.49440590244E+03 -0.57511836572E+03 -0.25736042975E+03  0.80089495053E+03  0.50400001928E-02 0. -1.
</event>
<event>
 5   0  0.6539134E-05  0.1699731E+04  0.7818609E-02  0.8761518E-01
       -1   -1    0    0    0  501  0.00000000000E+00  0.00000000000E+00  0.85101886364E+03  0.85101886366E+03  0.50400001928E-02 0.  1.
        1   -1    0    0  501    0  0.00000000000E+00  0.00000000000E+00 -0.84871408374E+03  0.84871408376E+03  0.50400001928E-02 0. -1.
    10030    2    1    2    0    0  0.00000000000E+00  0.00000000000E+00  0.23047798973E+01  0.16997329474E+04  0.16997313848E+04 0.  0.
        2    1    3    3  502    0 -0.71910228897E+03 -0.73915925646E+02  0.44803089271E+03  0.85047242571E+03  0.25500000920E-02 0.  1.
       -2    1    3    3    0  502  0.71910228897E+03  0.73915925646E+02 -0.44572611281E+03  0.84926052170E+03  0.25500000920E-02 0. -1.
</event>
<event>
 5   0  0.1393870E-04  0.1704291E+04  0.7818609E-02  0.8758921E-01
        2   -1    0    0  501    0  0.00000000000E+00  0.00000000000E+00  0.18304815542E+04  0.18304815542E+04  0.25500000920E-02 0.  1.
       -2   -1    0    0    0  501  0.00000000000E+00  0.00000000000E+00 -0.39670010163E+03  0.39670010164E+03  0.25500000920E-02 0. -1.
    10030    2    1    2    0    0  0.00000000000E+00  0.00000000000E+00  0.14337814525E+04  0.22271816558E+04  0.17042913115E+04 0.  0.
        3    1    3    3  502    0  0.17337875584E+03  0.83367865374E+03  0.75967582439E+03  0.11411343738E+04  0.10100000352E+00 0. -1.
       -3    1    3    3    0  502 -0.17337875584E+03 -0.83367865374E+03  0.67410562812E+03  0.10860472820E+04  0.10100000352E+00 0.  1.
</event>
<event>
 5   0  0.1255362E-04  0.1698745E+04  0.7818609E-02  0.8762080E-01
       -2   -1    0    0    0  501  0.00000000000E+00  0.00000000000E+00  0.45148462537E+03  0.45148462538E+03  0.25500000920E-02 0.  1.
        2   -1    0    0  501    0  0.00000000000E+00  0.00000000000E+00 -0.15979149490E+04  0.15979149490E+04  0.25500000920E-02 0. -1.
    10030    2    1    2    0    0  0.00000000000E+00  0.00000000000E+00 -0.11464303236E+04  0.20493995744E+04  0.16987454572E+04 0.  0.
        1    1    3    3  502    0 -0.59580308153E+03 -0.54976213570E+03 -0.87892840897E+03  0.11957152110E+04  0.50400001928E-02 0. -1.
       -1    1    3    3    0  502  0.59580308153E+03  0.54976213570E+03 -0.26750191464E+03  0.85368436332E+03  0.50400001928E-02 0.  1.
</event>
<event>
 5   0  0.6539134E-05  0.1683219E+04  0.7818609E-02  0.8770994E-01
        1   -1    0    0  501    0  0.00000000000E+00  0.00000000000E+00  0.18299142134E+04  0.18299142135E+04  0.50400001928E-02 0.  1.
       -1   -1    0    0    0  501  0.00000000000E+00  0.00000000000E+00 -0.38707083304E+03  0.38707083307E+03  0.50400001928E-02 0. -1.
    10030    2    1    2    0    0  0.00000000000E+00  0.00000000000E+00  0.14428433804E+04  0.22169850465E+04  0.16832188438E+04 0.  0.
        2    1    3    3  502    0 -0.44087594791E+03  0.19869981018E+03  0.16286547566E+04  0.16989318798E+04  0.25500000920E-02 0.  1.
       -2    1    3    3    0  502  0.44087594791E+03 -0.19869981018E+03 -0.18581137620E+03  0.51805316672E+03  0.25500000920E-02 0. -1.
</event>
<event>
 5   0  0.6564887E-05  0.1706938E+04  0.7818609E-02  0.8757417E-01
        1   -1    0    0  501    0  0.00000000000E+00  0.00000000000E+00  0.16993972005E+04  0.16993972005E+04  0.50400001928E-02 0. -1.
       -1   -1    0    0    0  501  0.00000000000E+00  0.00000000000E+00 -0.42862819600E+03  0.42862819603E+03  0.50400001928E-02 0.  1.
    10030    2    1    2    0    0  0.00000000000E+00  0.00000000000E+00  0.12707690045E+04  0.21280253965E+04  0.17069382606E+04 0.  0.
        4    1    3    3  502    0  0.63085986925E+03  0.23987037918E+03 -0.15868288586E+02  0.67511139002E+03  0.12699999809E+01 0.  1.
       -4    1    3    3    0  502 -0.63085986925E+03 -0.23987037918E+03  0.12866372930E+04  0.14529140065E+04  0.12699999809E+01 0. -1.
</event>
<event>
 5   0  0.6615842E-05  0.1703273E+04  0.7818609E-02  0.8759500E-01
       -1   -1    0    0    0  501  0.00000000000E+00  0.00000000000E+00  0.32795433142E+03  0.32795433146E+03  0.50400001928E-02 0.  1.
        1   -1    0    0  501    0  0.00000000000E+00  0.00000000000E+00 -0.22115424879E+04  0.22115424879E+04  0.50400001928E-02 0. -1.
    10030    2    1    2    0    0  0.00000000000E+00  0.00000000000E+00 -0.18835881565E+04  0.25394968194E+04  0.17032732465E+04 0.  0.
        3    1    3    3  502    0 -0.50178477470E+03  0.56257629087E+03 -0.15325661149E+04  0.17079341175E+04  0.10100000352E+00 0. -1.
       -3    1    3    3    0  502  0.50178477470E+03 -0.56257629087E+03 -0.35102204160E+03  0.83156270182E+03  0.10100000352E+00 0.  1.
</event>
<event>
 5   0  0.6564887E-05  0.1695362E+04  0.7818609E-02  0.8764014E-01
        1   -1    0    0  501    0  0.00000000000E+00  0.00000000000E+00  0.11667427143E+04  0.11667427143E+04  0.50400001928E-02 0.  1.
       -1   -1    0    0    0  501  0.00000000000E+00  0.00000000000E+00 -0.61587102575E+03  0.61587102577E+03  0.50400001928E-02 0. -1.
    10030    2    1    2    0    0  0.00000000000E+00  0.00000000000E+00  0.55087168852E+03  0.17826137401E+04  0.16953619463E+04 0.  0.
        4    1    3    3  502    0  0.12262710428E+03  0.76390125219E+03  0.63964196306E+03  0.10038555591E+04  0.12699999809E+01 0.  1.
       -4    1    3    3    0  502 -0.12262710428E+03 -0.76390125219E+03 -0.88770274542E+02  0.77875818092E+03  0.12699999809E+01 0. -1.
</event>
<event>
 5   0  0.1269175E-04  0.1693667E+04  0.7818609E-02  0.8764985E-01
        2   -1    0    0  501    0  0.00000000000E+00  0.00000000000E+00  0.95596943454E+03  0.95596943454E+03  0.25500000920E-02 0. -1.
       -2   -1    0    0    0  501  0.00000000000E+00  0.00000000000E+00 -0.75015651263E+03  0.75015651264E+03  0.25500000920E-02 0.  1.
    10030    2    1    2    0    0  0.00000000000E+00  0.00000000000E+00  0.20581292190E+03  0.17061259472E+04  0.16936666699E+04 0.  0.
        2    1    3    3  502    0  0.18514889479E+03 -0.25460046367E+02 -0.72912258092E+03  0.75269387218E+03  0.25500000920E-02 0.  1.
       -2    1    3    3    0  502 -0.18514889479E+03  0.25460046367E+02  0.93493550282E+03  0.95343207500E+03  0.25500000920E-02 0. -1.
</event>
<event>
 5   0  0.1255362E-04  0.1702392E+04  0.7818609E-02  0.8760001E-01
        2   -1    0    0  501    0  0.00000000000E+00  0.00000000000E+00  0.18676358539E+04  0.18676358539E+04  0.25500000920E-02 0. -1.
       -2   -1    0    0    0  501  0.00000000000E+00  0.00000000000E+00 -0.38794210557E+03  0.38794210557E+03  0.25500000920E-02 0.  1.
    10030    2    1    2    0    0  0.00000000000E+00  0.00000000000E+00  0.14796937483E+04  0.22555779595E+04  0.17023919474E+04 0.  0.
        1    1    3    3  502    0 -0.61273724518E+03 -0.32044307087E+03  0.13975381299E+04  0.15592445343E+04  0.50400001928E-02 0. -1.
       -1    1    3    3    0  502  0.61273724518E+03  0.32044307087E+03  0.82155618429E+02  0.69633342514E+03  0.50400001928E-02 0.  1.
</event>
<event>
 5   0  0.6601906E-05  0.1662849E+04  0.7818609E-02  0.8782841E-01
       -1   -1    0    0    0  501  0.00000000000E+00  0.00000000000E+00  0.20388167879E+04  0.20388167879E+04  0.50400001928E-02 0. -1.
        1   -1    0    0  501    0  0.00000000000E+00  0.00000000000E+00 -0.33905281141E+03  0.33905281145E+03  0.50400001928E-02 0.  1.
    10030    2    1    2    0    0  0.00000000000E+00  0.00000000000E+00  0.16997639765E+04  0.23778695993E+04  0.16628488373E+04 0.  0.
        1    1    3    3  502    0 -0.74945784368E+02 -0.64693180316E+03  0.11079470460E+03  0.66061569397E+03  0.50400001928E-02 0.  1.
       -1    1    3    3    0  502  0.74945784368E+02  0.64693180316E+03  0.15889692719E+04  0.17172539054E+04  0.50400001928E-02 0. -1.
</event>
<event>
 5   0  0.1269175E-04  0.1686748E+04  0.7818609E-02  0.8768959E-01
        2   -1    0    0  501    0  0.00000000000E+00  0.00000000000E+00  0.63693116622E+03  0.63693116623E+03  0.25500000920E-02 0. -1.
       -2   -1    0    0    0  501  0.00000000000E+00  0.00000000000E+00 -0.11167289746E+04  0.11167289746E+04  0.25500000920E-02 0.  1.
    10030    2    1    2    0    0  0.00000000000E+00  0.00000000000E+00 -0.47979780840E+03  0.17536601409E+04  0.16867477442E+04 0.  0.
        2    1    3    3  502    0  0.71639243427E+03 -0.22043937824E+03  0.16204845988E+03  0.76685809816E+03  0.25500000920E-02 0. -1.
       -2    1    3    3    0  502 -0.71639243427E+03  0.22043937824E+03 -0.64184626828E+03  0.98680204270E+03  0.25500000920E-02 0.  1.
</event>
<event>
 5   0  0.6615842E-05  0.1703714E+04  0.7818609E-02  0.8759249E-01
        1   -1    0    0  501    0  0.00000000000E+00  0.00000000000E+00  0.10874521712E+04  0.10874521712E+04  0.50400001928E-02 0. -1.
       -1   -1    0    0    0  501  0.00000000000E+00  0.00000000000E+00 -0.66730327139E+03  0.66730327141E+03  0.50400001928E-02 0.  1.
    10030    2    1    2    0    0  0.00000000000E+00  0.00000000000E+00  0.42014889982E+03  0.17547554426E+04  0.17037140504E+04 0.  0.
        3    1    3    3  502    0  0.51014855855E+03  0.54303195922E+03  0.63539275627E+03  0.97921357499E+03  0.10100000352E+00 0. -1.
       -3    1    3    3    0  502 -0.51014855855E+03 -0.54303195922E+03 -0.21524385644E+03  0.77554186764E+03  0.10100000352E+00 0.  1.
</event>
<event>
 5   0  0.1255362E-04  0.1701968E+04  0.7818609E-02  0.8760243E-01
        2   -1    0    0  501    0  0.00000000000E+00  0.00000000000E+00  0.14933696504E+04  0.14933696504E+04  0.25500000920E-02 0. -1.
       -2   -1    0    0    0  501  0.00000000000E+00  0.00000000000E+00 -0.48492593719E+03  0.48492593720E+03  0.25500000920E-02 0.  1.
    10030    2    1    2    0    0  0.00000000000E+00  0.00000000000E+00  0.10084437132E+04  0.19782955876E+04  0.17019678931E+04 0.  0.
        1    1    3    3  502    0 -0.42744335653E+03  0.71010840749E+03  0.27999854405E+03  0.87484910592E+03  0.50400001928E-02 0. -1.
       -1    1    3    3    0  502  0.42744335653E+03 -0.71010840749E+03  0.72844516916E+03  0.11034464817E+04  0.50400001928E-02 0.  1.
</event>
<event>
 5   0  0.6615842E-05  0.1709420E+04  0.7818609E-02  0.8756010E-01
       -1   -1    0    0    0  501  0.00000000000E+00  0.00000000000E+00  0.55158907663E+03  0.55158907665E+03  0.50400001928E-02 0.  1.
        1   -1    0    0  501    0  0.00000000000E+00  0.00000000000E+00 -0.13244077078E+04  0.13244077078E+04  0.50400001928E-02 0. -1.
    10030    2    1    2    0    0  0.00000000000E+00  0.00000000000E+00 -0.77281863119E+03  0.18759967845E+04  0.17094195795E+04 0.  0.
        3    1    3    3  502    0  0.11310464060E+03 -0.37406343635E+03 -0.12206223232E+04  0.12816532215E+04  0.10100000352E+00 0. -1.
       -3    1    3    3    0  502 -0.11310464060E+03  0.37406343635E+03  0.44780369197E+03  0.59434356300E+03  0.10100000352E+00 0.  1.
</event>
<event>
 5   0  0.1333546E-04  0.1697832E+04  0.7818609E-02  0.8762602E-01
       -2   -1    0    0    0  501  0.00000000000E+00  0.00000000000E+00  0.72214549725E+03  0.72214549726E+03  0.25500000920E-02 0.  1.
        2   -1    0    0  501    0  0.00000000000E+00  0.00000000000E+00 -0.99794025916E+03  0.99794025916E+03  0.25500000920E-02 0. -1.
    10030    2    1    2    0    0  0.00000000000E+00  0.00000000000E+00 -0.27579476191E+03  0.17200857564E+04  0.16978316344E+04 0.  0.
        5    1    3    3  502    0 -0.57928864339E+03  0.39814201111E+03  0.34430723043E+03  0.78272725281E+03  0.46999998093E+01 0.  1.
       -5    1    3    3    0  502  0.57928864339E+03 -0.39814201111E+03 -0.62010199235E+03  0.93735850361E+03  0.46999998093E+01 0. -1.
</event>
<event>
 5   0  0.1255362E-04  0.1704277E+04  0.7818609E-02  0.8758929E-01
        2   -1    0    0  501    0  0.00000000000E+00  0.00000000000E+00  0.14979653032E+04  0.14979653032E+04  0.25500000920E-02 0. -1.
       -2   -1    0    0    0  501  0.00000000000E+00  0.00000000000E+00 -0.48475117908E+03  0.48475117909E+03  0.25500000920E-02 0.  1.
    10030    2    1    2    0    0  0.00000000000E+00  0.00000000000E+00  0.10132141241E+04  0.19827164823E+04  0.17042774973E+04 0.  0.
        1    1    3    3  502    0 -0.58378003788E+03  0.53175410710E+03  0.13400153579E+03  0.80094817227E+03  0.50400001928E-02 0.  1.
       -1    1    3    3    0  502  0.58378003788E+03 -0.53175410710E+03  0.87921258829E+03  0.11817683100E+04  0.50400001928E-02 0. -1.
</event>
<event>
 5   0  0.6539134E-05  0.1738662E+04  0.7818609E-02  0.8739616E-01
        1   -1    0    0  501    0  0.00000000000E+00  0.00000000000E+00  0.11186662815E+04  0.11186662815E+04  0.50400001928E-02 0. -1.
       -1   -1    0    0    0  501  0.00000000000E+00  0.00000000000E+00 -0.67556891013E+03  0.67556891015E+03  0.50400001928E-02 0.  1.
    10030    2    1    2    0    0  0.00000000000E+00  0.00000000000E+00  0.44309737133E+03  0.17942351916E+04  0.17386617389E+04 0.  0.
        2    1    3    3  502    0  0.61073875133E+03  0.33187162271E+03 -0.31724644944E+03  0.76405883676E+03  0.25500000920E-02 0.  1.
       -2    1    3    3    0  502 -0.61073875133E+03 -0.33187162271E+03  0.76034382077E+03  0.10301763549E+04  0.25500000920E-02 0. -1.
</event>
<event>
 5   0  0.1269175E-04  0.1692983E+04  0.7818609E-02  0.8765377E-01
       -2   -1    0    0    0  501  0.00000000000E+00  0.00000000000E+00  0.94643957729E+03  0.94643957730E+03  0.25500000920E-02 0.  1.
        2   -1    0    0  501    0  0.00000000000E+00  0.00000000000E+00 -0.75709824345E+03  0.75709824346E+03  0.25500000920E-02 0. -1.
    10030    2    1    2    0    0  0.00000000000E+00  0.00000000000E+00  0.18934133384E+03  0.17035378208E+04  0.16929828605E+04 0.  0.
        2    1    3    3  502    0  0.12978935341E+03 -0.31979896214E+03  0.87242623293E+03  0.93821329363E+03  0.25500000920E-02 0.  1.
       -2    1    3    3    0  502 -0.12978935341E+03  0.31979896214E+03 -0.68308489908E+03  0.76532452712E+03  0.25500000920E-02 0. -1.
</event>
<event>
 5   0  0.1255362E-04  0.1694861E+04  0.7818609E-02  0.8764301E-01
       -2   -1    0    0    0  501  0.00000000000E+00  0.00000000000E+00  0.10316142590E+04  0.10316142590E+04  0.25500000920E-02 0.  1.
        2   -1    0    0  501    0  0.00000000000E+00  0.00000000000E+00 -0.69613110144E+03  0.69613110144E+03  0.25500000920E-02 0. -1.
    10030    2    1    2    0    0  0.00000000000E+00  0.00000000000E+00  0.33548315757E+03  0.17277453604E+04  0.16948613753E+04 0.  0.
        1    1    3    3  502    0  0.14055452826E+03  0.12121195576E+03 -0.67515722763E+03  0.70020368156E+03  0.50400001928E-02 0. -1.
       -1    1    3    3    0  502 -0.14055452826E+03 -0.12121195576E+03  0.10106403852E+04  0.10275416789E+04  0.50400001928E-02 0.  1.
</event>
<event>
 5   0  0.6539134E-05  0.1697307E+04  0.7818609E-02  0.8762902E-01
       -1   -1    0    0    0  501  0.00000000000E+00  0.00000000000E+00  0.50951257766E+03  0.50951257769E+03  0.50400001928E-02 0. -1.
        1   -1    0    0  501    0  0.00000000000E+00  0.00000000000E+00 -0.14135325381E+04  0.14135325382E+04  0.50400001928E-02 0.  1.
    10030    2    1    2    0    0  0.00000000000E+00  0.00000000000E+00 -0.90401996048E+03  0.19230451158E+04  0.16973068163E+04 0.  0.
        2    1    3    3  502    0 -0.91769254507E+01  0.35330691191E+03 -0.13261842387E+04  0.13724702638E+04  0.25500000920E-02 0.  1.
       -2    1    3    3    0  502  0.91769254507E+01 -0.35330691191E+03  0.42216427819E+03  0.55057485209E+03  0.25500000920E-02 0. -1.
</event>
<event>
 5   0  0.6564887E-05  0.1704603E+04  0.7818609E-02  0.8758744E-01
        1   -1    0    0  501    0  0.00000000000E+00  0.00000000000E+00  0.10919055988E+04  0.10919055988E+04  0.50400001928E-02 0.  1.
       -1   -1    0    0    0  501  0.00000000000E+00  0.00000000000E+00 -0.66527496800E+03  0.66527496802E+03  0.50400001928E-02 0. -1.
    10030    2    1    2    0    0  0.00000000000E+00  0.00000000000E+00  0.42663063078E+03  0.17571805668E+04  0.17046025488E+04 0.  0.
        4    1    3    3  502    0  0.86502288073E+02 -0.43751315637E+03  0.96202051052E+03  0.10603704463E+04  0.12699999809E+01 0.  1.
       -4    1    3    3    0  502 -0.86502288073E+02  0.43751315637E+03 -0.53538987973E+03  0.69681012052E+03  0.12699999809E+01 0. -1.
</event>
<event>
 5   0  0.1333546E-04  0.1696006E+04  0.7818609E-02  0.8763646E-01
        2   -1    0    0  501    0  0.00000000000E+00  0.00000000000E+00  0.75443577769E+03  0.75443577769E+03  0.25500000920E-02 0. -1.
       -2   -1    0    0    0  501  0.00000000000E+00  0.00000000000E+00 -0.95317449648E+03  0.95317449648E+03  0.25500000920E-02 0.  1.
    10030    2    1    2    0    0  0.00000000000E+00  0.00000000000E+00 -0.19873871879E+03  0.17076102742E+04  0.16960058284E+04 0.  0.
        5    1    3    3  502    0  0.61883474577E+03  0.46255485369E+02  0.48250429875E+03  0.78608428353E+03  0.46999998093E+01 0. -1.
       -5    1    3    3    0  502 -0.61883474577E+03 -0.46255485369E+02 -0.68124301754E+03  0.92152599065E+03  0.46999998093E+01 0.  1.
</event>
<event>
 5   0  0.6615842E-05  0.1700779E+04  0.7818609E-02  0.8760920E-01
        1   -1    0    0  501    0  0.00000000000E+00  0.00000000000E+00  0.13521721494E+04  0.13521721494E+04  0.50400001928E-02 0.  1.
       -1   -1    0    0    0  501  0.00000000000E+00  0.00000000000E+00 -0.53481514963E+03  0.53481514966E+03  0.50400001928E-02 0. -1.
    10030    2    1    2    0    0  0.00000000000E+00  0.00000000000E+00  0.81735699980E+03  0.18869872991E+04  0.17007788221E+04 0.  0.
        3    1    3    3  502    0  0.31382893387E+03  0.66257589088E+02 -0.46512995445E+03  0.56499960405E+03  0.10100000352E+00 0. -1.
       -3    1    3    3    0  502 -0.31382893387E+03 -0.66257589088E+02  0.12824869543E+04  0.13219876951E+04  0.10100000352E+00 0.  1.
</event>
<event>
 5   0  0.6615842E-05  0.1697501E+04  0.7818609E-02  0.8762791E-01
       -1   -1    0    0    0  501  0.00000000000E+00  0.00000000000E+00  0.21759701584E+04  0.21759701584E+04  0.50400001928E-02 0.  1.
        1   -1    0    0  501    0  0.00000000000E+00  0.00000000000E+00 -0.33106023871E+03  0.33106023875E+03  0.50400001928E-02 0. -1.
    10030    2    1    2    0    0  0.00000000000E+00  0.00000000000E+00  0.18449099197E+04  0.25070303972E+04  0.16975007513E+04 0.  0.
        3    1    3    3  502    0  0.55580073982E+03  0.62476523389E+03  0.11371445496E+04  0.14115040902E+04  0.10100000352E+00 0. -1.
       -3    1    3    3    0  502 -0.55580073982E+03 -0.62476523389E+03  0.70776537007E+03  0.10955263069E+04  0.10100000352E+00 0.  1.
</event>
<event>
 5   0  0.1393870E-04  0.1691680E+04  0.7818609E-02  0.8766124E-01
       -2   -1    0    0    0  501  0.00000000000E+00  0.00000000000E+00  0.56067902189E+03  0.56067902189E+03  0.25500000920E-02 0.  1.
        2   -1    0    0  501    0  0.00000000000E+00  0.00000000000E+00 -0.12760341625E+04  0.12760341625E+04  0.25500000920E-02 0. -1.
    10030    2    1    2    0    0  0.00000000000E+00  0.00000000000E+00 -0.71535514057E+03  0.18367131843E+04  0.16916803316E+04 0.  0.
        3    1    3    3  502    0  0.69945770535E+03  0.40953149574E+03 -0.62025542357E+03  0.10206242836E+04  0.10100000352E+00 0. -1.
       -3    1    3    3    0  502 -0.69945770535E+03 -0.40953149574E+03 -0.95099716998E+02  0.81608890076E+03  0.10100000352E+00 0.  1.
</event>
<event>
 5   0  0.1333546E-04  0.1700823E+04  0.7818609E-02  0.8760895E-01
       -2   -1    0    0    0  501  0.00000000000E+00  0.00000000000E+00  0.56193874416E+03  0.56193874417E+03  0.25500000920E-02 0.  1.
        2   -1    0    0  501    0  0.00000000000E+00  0.00000000000E+00 -0.12869723040E+04  0.12869723040E+04  0.25500000920E-02 0. -1.
    10030    2    1    2    0    0  0.00000000000E+00  0.00000000000E+00 -0.72503355985E+03  0.18489110482E+04  0.17008228600E+04 0.  0.
        5    1    3    3  502    0  0.51964963564E+03 -0.35407183322E+03 -0.98488123684E+03  0.11685100546E+04  0.46999998093E+01 0. -1.
       -5    1    3    3    0  502 -0.51964963564E+03  0.35407183322E+03  0.25984767699E+03  0.68040099364E+03  0.46999998093E+01 0.  1.
</event>
<event>
 5   0  0.6834837E-05  0.1699533E+04  0.7818609E-02  0.8761631E-01
        1   -1    0    0  501    0  0.00000000000E+00  0.00000000000E+00  0.99612882392E+03  0.99612882393E+03  0.50400001928E-02 0. -1.
       -1   -1    0    0    0  501  0.00000000000E+00  0.00000000000E+00 -0.72490917429E+03  0.72490917431E+03  0.50400001928E-02 0.  1.
    10030    2    1    2    0    0  0.00000000000E+00  0.00000000000E+00  0.27121964963E+03  0.17210379982E+04  0.16995327867E+04 0.  0.
        5    1    3    3  502    0 -0.54562174681E+03 -0.65143658697E+03  0.13849469997E+03  0.86097362872E+03  0.46999998093E+01 0. -1.
       -5    1    3    3    0  502  0.54562174681E+03  0.65143658697E+03  0.13272494966E+03  0.86006436951E+03  0.46999998093E+01 0.  1.
</event>
<event>
 5   0  0.6539134E-05  0.1703246E+04  0.7818609E-02  0.8759515E-01
        1   -1    0    0  501    0  0.00000000000E+00  0.00000000000E+00  0.11497818356E+04  0.11497818356E+04  0.50400001928E-02 0.  1.
       -1   -1    0    0    0  501  0.00000000000E+00  0.00000000000E+00 -0.63078202511E+03  0.63078202513E+03  0.50400001928E-02 0. -1.
    10030    2    1    2    0    0  0.00000000000E+00  0.00000000000E+00  0.51899981051E+03  0.17805638608E+04  0.17032459772E+04 0.  0.
        2    1    3    3  502    0 -0.90548691501E+02 -0.72680073239E+03 -0.19476378598E+03  0.75787288015E+03  0.25500000920E-02 0. -1.
       -2    1    3    3    0  502  0.90548691501E+02  0.72680073239E+03  0.71376359650E+03  0.10226909806E+04  0.25500000920E-02 0.  1.
</event>
<event>
 5   0  0.1285639E-04  0.1712189E+04  0.7818609E-02  0.8754443E-01
       -2   -1    0    0    0  501  0.00000000000E+00  0.00000000000E+00  0.41736442888E+03  0.41736442889E+03  0.25500000920E-02 0. -1.
        2   -1    0    0  501    0  0.00000000000E+00  0.00000000000E+00 -0.17560143280E+04  0.17560143280E+04  0.25500000920E-02 0.  1.
    10030    2    1    2    0    0  0.00000000000E+00  0.00000000000E+00 -0.13386498991E+04  0.21733787569E+04  0.17121891451E+04 0.  0.
        4    1    3    3  502    0  0.45281980846E+03 -0.25142135405E+03  0.19592376096E+03  0.55375645298E+03  0.12699999809E+01 0. -1.
       -4    1    3    3    0  502 -0.45281980846E+03  0.25142135405E+03 -0.15345736601E+04  0.16196223039E+04  0.12699999809E+01 0.  1.
</event>
<event>
 5   0  0.1333546E-04  0.1698263E+04  0.7818609E-02  0.8762355E-01
        2   -1    0    0  501    0  0.00000000000E+00  0.00000000000E+00  0.90619590473E+03  0.90619590474E+03  0.25500000920E-02 0. -1.
       -2   -1    0    0    0  501  0.00000000000E+00  0.00000000000E+00 -0.79566091247E+03  0.79566091248E+03  0.25500000920E-02 0.  1.
    10030    2    1    2    0    0  0.00000000000E+00  0.00000000000E+00  0.11053499226E+03  0.17018568172E+04  0.16982634194E+04 0.  0.
        5    1    3    3  502    0 -0.29463842555E+03  0.55021019762E+03 -0.52167589613E+03  0.81345614140E+03  0.46999998093E+01 0.  1.
       -5    1    3    3    0  502  0.29463842555E+03 -0.55021019762E+03  0.63221088839E+03  0.88840067581E+03  0.46999998093E+01 0. -1.
</event>
<event>
 5   0  0.6601906E-05  0.1697518E+04  0.7818609E-02  0.8762781E-01
        1   -1    0    0  501    0  0.00000000000E+00  0.00000000000E+00  0.76923803242E+03  0.76923803244E+03  0.50400001928E-02 0. -1.
       -1   -1    0    0    0  501  0.00000000000E+00  0.00000000000E+00 -0.93650038958E+03  0.93650038960E+03  0.50400001928E-02 0.  1.
    10030    2    1    2    0    0  0.00000000000E+00  0.00000000000E+00 -0.16726235716E+03  0.17057384220E+04  0.16975178551E+04 0.  0.
        1    1    3    3  502    0  0.56442247995E+03  0.61405922676E+03  0.74452797858E+02  0.83736771431E+03  0.50400001928E-02 0. -1.
       -1    1    3    3    0  502 -0.56442247995E+03 -0.61405922676E+03 -0.24171515502E+03  0.86837070772E+03  0.50400001928E-02 0.  1.
</event>
<event>
 5   0  0.1269175E-04  0.1753598E+04  0.7818609E-02  0.8731372E-01
        2   -1    0    0  501    0  0.00000000000E+00  0.00000000000E+00  0.10711006302E+04  0.10711006302E+04  0.25500000920E-02 0. -1.
       -2   -1    0    0    0  501  0.00000000000E+00  0.00000000000E+00 -0.71774442873E+03  0.71774442873E+03  0.25500000920E-02 0.  1.
    10030    2    1    2    0    0  0.00000000000E+00  0.00000000000E+00  0.35335620149E+03  0.17888450590E+04  0.17535980269E+04 0.  0.
        2    1    3    3  502    0  0.66087765701E+03  0.16136978980E+03  0.74094826198E+03  0.10058845926E+04  0.25500000920E-02 0. -1.
       -2    1    3    3    0  502 -0.66087765701E+03 -0.16136978980E+03 -0.38759206049E+03  0.78296046641E+03  0.25500000920E-02 0.  1.
</event>
<event>
 5   0  0.6539134E-05  0.1700754E+04  0.7818609E-02  0.8760934E-01
        1   -1    0    0  501    0  0.00000000000E+00  0.00000000000E+00  0.16396275454E+04  0.16396275454E+04  0.50400001928E-02 0. -1.
       -1   -1    0    0    0  501  0.00000000000E+00  0.00000000000E+00 -0.44103999303E+03  0.44103999306E+03  0.50400001928E-02 0.  1.
    10030    2    1    2    0    0  0.00000000000E+00  0.00000000000E+00  0.11985875523E+04  0.20806675384E+04  0.17007543282E+04 0.  0.
        2    1    3    3  502    0 -0.42417227891E+03  0.98526433336E+02 -0.29428551913E+03  0.52557924906E+03  0.25500000920E-02 0.  1.
       -2    1    3    3    0  502  0.42417227891E+03 -0.98526433336E+02  0.14928730715E+04  0.15550882894E+04  0.25500000920E-02 0. -1.
</event>
<event>
 5   0  0.1255362E-04  0.1744651E+04  0.7818609E-02  0.8736300E-01
        2   -1    0    0  501    0  0.00000000000E+00  0.00000000000E+00  0.74556334585E+03  0.74556334586E+03  0.25500000920E-02 0.  1.
       -2   -1    0    0    0  501  0.00000000000E+00  0.00000000000E+00 -0.10206396162E+04  0.10206396162E+04  0.25500000920E-02 0. -1.
    10030    2    1    2    0    0  0.00000000000E+00  0.00000000000E+00 -0.27507627039E+03  0.17662029621E+04  0.17446506667E+04 0.  0.
        1    1    3    3  502    0 -0.50370684472E+03 -0.69934725764E+03 -0.11732923466E+01  0.86186341658E+03  0.50400001928E-02 0.  1.
       -1    1    3    3    0  502  0.50370684472E+03  0.69934725764E+03 -0.27390297804E+03  0.90433954552E+03  0.50400001928E-02 0. -1.
</event>
<event>
 5   0  0.6615842E-05  0.1698174E+04  0.7818609E-02  0.8762406E-01
       -1   -1    0    0    0  501  0.00000000000E+00  0.00000000000E+00  0.82309471609E+03  0.82309471610E+03  0.50400001928E-02 0.  1.
        1   -1    0    0  501    0  0.00000000000E+00  0.00000000000E+00 -0.87590022909E+03  0.87590022910E+03  0.50400001928E-02 0. -1.
    10030    2    1    2    0    0  0.00000000000E+00  0.00000000000E+00 -0.52805513000E+02  0.16989949452E+04  0.16981741376E+04 0.  0.
        3    1    3    3  502    0  0.52795204523E+03  0.66491248447E+03 -0.36745361096E+02  0.84981892532E+03  0.10100000352E+00 0. -1.
       -3    1    3    3    0  502 -0.52795204523E+03 -0.66491248447E+03 -0.16060151904E+02  0.84917601989E+03  0.10100000352E+00 0.  1.
</event>
<event>
 5   0  0.6615842E-05  0.1700992E+04  0.7818609E-02  0.8760799E-01
       -1   -1    0    0    0  501  0.00000000000E+00  0.00000000000E+00  0.93476182748E+03  0.93476182750E+03  0.50400001928E-02 0.  1.
        1   -1    0    0  501    0  0.00000000000E+00  0.00000000000E+00 -0.77382681894E+03  0.77382681895E+03  0.50400001928E-02 0. -1.
    10030    2    1    2    0    0  0.00000000000E+00  0.00000000000E+00  0.16093500855E+03  0.17085886464E+04  0.17009923826E+04 0.  0.
        3    1    3    3  502    0 -0.71095914235E+03  0.10607226084E+03 -0.37612770053E+03  0.81128680744E+03  0.10100000352E+00 0. -1.
       -3    1    3    3    0  502  0.71095914235E+03 -0.10607226084E+03  0.53706270908E+03  0.89730183901E+03  0.10100000352E+00 0.  1.
</event>
<event>
 5   0  0.1285639E-04  0.1705910E+04  0.7818609E-02  0.8758001E-01
       -2   -1    0    0    0  501  0.00000000000E+00  0.00000000000E+00  0.94390562772E+03  0.94390562772E+03  0.25500000920E-02 0.  1.
        2   -1    0    0  501    0  0.00000000000E+00  0.00000000000E+00 -0.77076813086E+03  0.77076813087E+03  0.25500000920E-02 0. -1.
    10030    2    1    2    0    0  0.00000000000E+00  0.00000000000E+00  0.17313749686E+03  0.17146737586E+04  0.17059101693E+04 0.  0.
        4    1    3    3  502    0  0.76371578937E+03 -0.98752439695E+02  0.45521836639E+03  0.89456091200E+03  0.12699999809E+01 0.  1.
       -4    1    3    3    0  502 -0.76371578937E+03  0.98752439695E+02 -0.28208086953E+03  0.82011284659E+03  0.12699999809E+01 0. -1.
</event>
<event>
 5   0  0.1255362E-04  0.1696737E+04  0.7818609E-02  0.8763227E-01
       -2   -1    0    0    0  501  0.00000000000E+00  0.00000000000E+00  0.88976330432E+03  0.88976330433E+03  0.25500000920E-02 0. -1.
        2   -1    0    0  501    0  0.00000000000E+00  0.00000000000E+00 -0.80889973417E+03  0.80889973417E+03  0.25500000920E-02 0.  1.
    10030    2    1    2    0    0  0.00000000000E+00  0.00000000000E+00  0.80863570153E+02  0.16986630385E+04  0.16967372223E+04 0.  0.
        1    1    3    3  502    0  0.44758087717E+03 -0.25547607164E+02  0.76149087877E+03  0.88365699245E+03  0.50400001928E-02 0. -1.
       -1    1    3    3    0  502 -0.44758087717E+03  0.25547607164E+02 -0.68062730861E+03  0.81500604605E+03  0.50400001928E-02 0.  1.
</event>
<event>
 5   0  0.4720875E-05  0.1623242E+04  0.7818609E-02  0.8806395E-01
       -4   -1    0    0    0  501  0.00000000000E+00  0.00000000000E+00  0.14233869878E+04  0.14233875544E+04  0.12699999809E+01 0.  1.
        4   -1    0    0  501    0  0.00000000000E+00  0.00000000000E+00 -0.46278813174E+03  0.46278987433E+03  0.12699999809E+01 0. -1.
    10030    2    1    2    0    0  0.00000000000E+00  0.00000000000E+00  0.96059885605E+03  0.18861774287E+04  0.16232421662E+04 0.  0.
        5    1    3    3  502    0  0.21992899081E+03 -0.57685349184E+03  0.10924971845E+04  0.12548708700E+04  0.46999998093E+01 0.  1.
       -5    1    3    3    0  502 -0.21992899081E+03  0.57685349184E+03 -0.13189832849E+03  0.63130655874E+03  0.46999998093E+01 0. -1.
</event>
<event>
 5   0  0.6564887E-05  0.1700275E+04  0.7818609E-02  0.8761208E-01
        1   -1    0    0  501    0  0.00000000000E+00  0.00000000000E+00  0.85910112705E+03  0.85910112707E+03  0.50400001928E-02 0.  1.
       -1   -1    0    0    0  501  0.00000000000E+00  0.00000000000E+00 -0.84126721837E+03  0.84126721838E+03  0.50400001928E-02 0. -1.
    10030    2    1    2    0    0  0.00000000000E+00  0.00000000000E+00  0.17833908682E+02  0.17003683455E+04  0.17002748195E+04 0.  0.
        4    1    3    3  502    0  0.27817323699E+03  0.60391095667E+03  0.53870378353E+03  0.85574071579E+03  0.12699999809E+01 0.  1.
       -4    1    3    3    0  502 -0.27817323699E+03 -0.60391095667E+03 -0.52086987485E+03  0.84462762966E+03  0.12699999809E+01 0. -1.
</event>
<event>
 5   0  0.6834837E-05  0.1696599E+04  0.7818609E-02  0.8763307E-01
       -1   -1    0    0    0  501  0.00000000000E+00  0.00000000000E+00  0.66680960054E+03  0.66680960056E+03  0.50400001928E-02 0.  1.
        1   -1    0    0  501    0  0.00000000000E+00  0.00000000000E+00 -0.10791865541E+04  0.10791865541E+04  0.50400001928E-02 0. -1.
    10030    2    1    2    0    0  0.00000000000E+00  0.00000000000E+00 -0.41237695353E+03  0.17459961546E+04  0.16965988979E+04 0.  0.
        5    1    3    3  502    0  0.65584883211E+03  0.31495556967E+03 -0.65507061931E+03  0.97901701095E+03  0.46999998093E+01 0. -1.
       -5    1    3    3    0  502 -0.65584883211E+03 -0.31495556967E+03  0.24269366578E+03  0.76697914369E+03  0.46999998093E+01 0.  1.
</event>
<event>
 5   0  0.1269175E-04  0.1683623E+04  0.7818609E-02  0.8770761E-01
       -2   -1    0    0    0  501  0.00000000000E+00  0.00000000000E+00  0.19171035061E+04  0.19171035061E+04  0.25500000920E-02 0.  1.
        2   -1    0    0  501    0  0.00000000000E+00  0.00000000000E+00 -0.36964421567E+03  0.36964421568E+03  0.25500000920E-02 0. -1.
    10030    2    1    2    0    0  0.00000000000E+00  0.00000000000E+00  0.15474592904E+04  0.22867477218E+04  0.16836225490E+04 0.  0.
        2    1    3    3  502    0 -0.57128641812E+03  0.10972493953E+03  0.16001753050E+04  0.17026358215E+04  0.25500000920E-02 0.  1.
       -2    1    3    3    0  502  0.57128641812E+03 -0.10972493953E+03 -0.52716014554E+02  0.58411190030E+03  0.25500000920E-02 0. -1.
</event>
<event>
 5   0  0.6564887E-05  0.1699098E+04  0.7818609E-02  0.8761879E-01
        1   -1    0    0  501    0  0.00000000000E+00  0.00000000000E+00  0.49486656926E+03  0.49486656929E+03  0.50400001928E-02 0.  1.
       -1   -1    0    0    0  501  0.00000000000E+00  0.00000000000E+00 -0.14584397697E+04  0.14584397697E+04  0.50400001928E-02 0. -1.
    10030    2    1    2    0    0  0.00000000000E+00  0.00000000000E+00 -0.96357320039E+03  0.19533063389E+04  0.16990975079E+04 0.  0.
        4    1    3    3  502    0  0.76611115821E+03  0.14459474925E+03 -0.93806725477E+02  0.78526127046E+03  0.12699999809E+01 0.  1.
       -4    1    3    3    0  502 -0.76611115821E+03 -0.14459474925E+03 -0.86976647491E+03  0.11680450685E+04  0.12699999809E+01 0. -1.
</event>
<event>
 5   0  0.1333546E-04  0.1697199E+04  0.7818609E-02  0.8762964E-01
        2   -1    0    0  501    0  0.00000000000E+00  0.00000000000E+00  0.24561930662E+04  0.24561930662E+04  0.25500000920E-02 0. -1.
       -2   -1    0    0    0  501  0.00000000000E+00  0.00000000000E+00 -0.29318585516E+03  0.29318585517E+03  0.25500000920E-02 0.  1.
    10030    2    1    2    0    0  0.00000000000E+00  0.00000000000E+00  0.21630072110E+04  0.27493789214E+04  0.16971989448E+04 0.  0.
        5    1    3    3  502    0  0.31687468651E+03 -0.77641490723E+03  0.87110136057E+03  0.12091605954E+04  0.46999998093E+01 0.  1.
       -5    1    3    3    0  502 -0.31687468651E+03  0.77641490723E+03  0.12919058505E+04  0.15402183260E+04  0.46999998093E+01 0. -1.
</event>
<event>
 5   0  0.6834837E-05  0.1691172E+04  0.7818609E-02  0.8766415E-01
       -1   -1    0    0    0  501  0.00000000000E+00  0.00000000000E+00  0.38272137451E+03  0.38272137454E+03  0.50400001928E-02 0. -1.
        1   -1    0    0  501    0  0.00000000000E+00  0.00000000000E+00 -0.18682417881E+04  0.18682417881E+04  0.50400001928E-02 0.  1.
    10030    2    1    2    0    0  0.00000000000E+00  0.00000000000E+00 -0.14855204136E+04  0.22509631627E+04  0.16911724514E+04 0.  0.
        5    1    3    3  502    0 -0.33569062426E+03 -0.24250740512E+03 -0.17240078885E+04  0.17730548007E+04  0.46999998093E+01 0.  1.
       -5    1    3    3    0  502  0.33569062426E+03  0.24250740512E+03  0.23848747488E+03  0.47790836196E+03  0.46999998093E+01 0. -1.
</event>
<event>
 5   0  0.6601906E-05  0.1697605E+04  0.7818609E-02  0.8762732E-01
       -1   -1    0    0    0  501  0.00000000000E+00  0.00000000000E+00  0.16149107614E+04  0.16149107614E+04  0.50400001928E-02 0. -1.
        1   -1    0    0  501    0  0.00000000000E+00  0.00000000000E+00 -0.44613333910E+03  0.44613333913E+03  0.50400001928E-02 0.  1.
    10030    2    1    2    0    0  0.00000000000E+00  0.00000000000E+00  0.11687774223E+04  0.20610441006E+04  0.16976048190E+04 0.  0.
        1    1    3    3  502    0  0.38952067004E+03  0.43895000732E+03 -0.16013828684E+03  0.60831548743E+03  0.50400001928E-02 0.  1.
       -1    1    3    3    0  502 -0.38952067004E+03 -0.43895000732E+03  0.13289157092E+04  0.14527286131E+04  0.50400001928E-02 0. -1.
</event>
<event>
 5   0  0.1269175E-04  0.1787733E+04  0.7818609E-02  0.8712850E-01
       -2   -1    0    0    0  501  0.00000000000E+00  0.00000000000E+00  0.11503789430E+04  0.11503789430E+04  0.25500000920E-02 0.  1.
        2   -1    0    0  501    0  0.00000000000E+00  0.00000000000E+00 -0.69455129698E+03  0.69455129699E+03  0.25500000920E-02 0. -1.
    10030    2    1    2    0    0  0.00000000000E+00  0.00000000000E+00  0.45582764598E+03  0.18449302400E+04  0.17877328513E+04 0.  0.
        2    1    3    3  502    0  0.30277080148E+03  0.83169739432E+03  0.98991028668E+02  0.89061211406E+03  0.25500000920E-02 0. -1.
       -2    1    3    3    0  502 -0.30277080148E+03 -0.83169739432E+03  0.35683661731E+03  0.95431812589E+03  0.25500000920E-02 0.  1.
</event>
<event>
 5   0  0.6834837E-05  0.1698354E+04  0.7818609E-02  0.8762304E-01
        1   -1    0    0  501    0  0.00000000000E+00  0.00000000000E+00  0.18011723985E+04  0.18011723985E+04  0.50400001928E-02 0.  1.
       -1   -1    0    0    0  501  0.00000000000E+00  0.00000000000E+00 -0.40035137002E+03  0.40035137006E+03  0.50400001928E-02 0. -1.
    10030    2    1    2    0    0  0.00000000000E+00  0.00000000000E+00  0.14008210285E+04  0.22015237686E+04  0.16983543063E+04 0.  0.
        5    1    3    3  502    0 -0.43526779294E+03 -0.22656072976E+03 -0.19794394396E+03  0.52914242959E+03  0.46999998093E+01 0. -1.
       -5    1    3    3    0  502  0.43526779294E+03  0.22656072976E+03  0.15987649724E+04  0.16723813390E+04  0.46999998093E+01 0.  1.
</event>
<event>
 5   0  0.1255362E-04  0.1697861E+04  0.7818609E-02  0.8762585E-01
        2   -1    0    0  501    0  0.00000000000E+00  0.00000000000E+00  0.11397612547E+04  0.11397612547E+04  0.25500000920E-02 0.  1.
       -2   -1    0    0    0  501  0.00000000000E+00  0.00000000000E+00 -0.63231053557E+03  0.63231053557E+03  0.25500000920E-02 0. -1.
    10030    2    1    2    0    0  0.00000000000E+00  0.00000000000E+00  0.50745071913E+03  0.17720717903E+04  0.16978610654E+04 0.  0.
        1    1    3    3  502    0 -0.54638866822E+03 -0.58816135686E+03  0.54185067182E+03  0.96854349879E+03  0.50400001928E-02 0. -1.
       -1    1    3    3    0  502  0.54638866822E+03  0.58816135686E+03 -0.34399952691E+02  0.80352829149E+03  0.50400001928E-02 0.  1.
</event>
<event>
 5   0  0.6601906E-05  0.1626401E+04  0.7818609E-02  0.8804491E-01
        1   -1    0    0  501    0  0.00000000000E+00  0.00000000000E+00  0.93616786859E+03  0.93616786860E+03  0.50400001928E-02 0.  1.
       -1   -1    0    0    0  501  0.00000000000E+00  0.00000000000E+00 -0.70638531307E+03  0.70638531308E+03  0.50400001928E-02 0. -1.
    10030    2    1    2    0    0  0.00000000000E+00  0.00000000000E+00  0.22978255552E+03  0.16425531817E+04  0.16264012211E+04 0.  0.
        1    1    3    3  502    0 -0.83309466594E+02 -0.60738663516E+03  0.65445942650E+03  0.89675868146E+03  0.50400001928E-02 0.  1.
       -1    1    3    3    0  502  0.83309466594E+02  0.60738663516E+03 -0.42467687098E+03  0.74579450023E+03  0.50400001928E-02 0. -1.
</event>
<event>
 5   0  0.6539134E-05  0.1701539E+04  0.7818609E-02  0.8760487E-01
        1   -1    0    0  501    0  0.00000000000E+00  0.00000000000E+00  0.12850549547E+04  0.12850549547E+04  0.50400001928E-02 0.  1.
       -1   -1    0    0    0  501  0.00000000000E+00  0.00000000000E+00 -0.56325115308E+03  0.56325115310E+03  0.50400001928E-02 0. -1.
    10030    2    1    2    0    0  0.00000000000E+00  0.00000000000E+00  0.72180380165E+03  0.18483061078E+04  0.17015389329E+04 0.  0.
        2    1    3    3  502    0  0.67800803339E+03  0.48613007713E+03  0.54198868247E+03  0.99487138724E+03  0.25500000920E-02 0.  1.
       -2    1    3    3    0  502 -0.67800803339E+03 -0.48613007713E+03  0.17981511918E+03  0.85343472059E+03  0.25500000920E-02 0. -1.
</event>
<event>
 5   0  0.1285639E-04  0.1702503E+04  0.7818609E-02  0.8759938E-01
       -2   -1    0    0    0  501  0.00000000000E+00  0.00000000000E+00  0.93085585242E+03  0.93085585243E+03  0.25500000920E-02 0.  1.
        2   -1    0    0  501    0  0.00000000000E+00  0.00000000000E+00 -0.77845453745E+03  0.77845453746E+03  0.25500000920E-02 0. -1.
    10030    2    1    2    0    0  0.00000000000E+00  0.00000000000E+00  0.15240131497E+03  0.17093103899E+04  0.17025028188E+04 0.  0.
        4    1    3    3  502    0 -0.10135249405E+02  0.33093475722E+03 -0.71115881370E+03  0.78445459271E+03  0.12699999809E+01 0. -1.
       -4    1    3    3    0  502  0.10135249405E+02 -0.33093475722E+03  0.86356012868E+03  0.92485579717E+03  0.12699999809E+01 0.  1.
</event>
<event>
 5   0  0.1269175E-04  0.1689221E+04  0.7818609E-02  0.8767536E-01
        2   -1    0    0  501    0  0.00000000000E+00  0.00000000000E+00  0.14133330740E+04  0.14133330740E+04  0.25500000920E-02 0. -1.
       -2   -1    0    0    0  501  0.00000000000E+00  0.00000000000E+00 -0.50474073365E+03  0.50474073365E+03  0.25500000920E-02 0.  1.
    10030    2    1    2    0    0  0.00000000000E+00  0.00000000000E+00  0.90859234038E+03  0.19180738077E+04  0.16892208531E+04 0.  0.
        2    1    3    3  502    0  0.16982235954E+03 -0.37049482480E+02 -0.48421260880E+03  0.51446491472E+03  0.25500000920E-02 0.  1.
       -2    1    3    3    0  502 -0.16982235954E+03  0.37049482480E+02  0.13928049492E+04  0.14036088930E+04  0.25500000920E-02 0. -1.
</event>
<event>
 5   0  0.1285639E-04  0.1698052E+04  0.7818609E-02  0.8762476E-01
        2   -1    0    0  501    0  0.00000000000E+00  0.00000000000E+00  0.10376144520E+04  0.10376144520E+04  0.25500000920E-02 0. -1.
       -2   -1    0    0    0  501  0.00000000000E+00  0.00000000000E+00 -0.69471423619E+03  0.69471423619E+03  0.25500000920E-02 0.  1.
    10030    2    1    2    0    0  0.00000000000E+00  0.00000000000E+00  0.34290021581E+03  0.17323286882E+04  0.16980524509E+04 0.  0.
        4    1    3    3  502    0 -0.84849095208E+03  0.15824460734E+02  0.14530847569E+03  0.86098982301E+03  0.12699999809E+01 0.  1.
       -4    1    3    3    0  502  0.84849095208E+03 -0.15824460734E+02  0.19759174012E+03  0.87133886518E+03  0.12699999809E+01 0. -1.
</event>
<event>
 5   0  0.6539134E-05  0.1703642E+04  0.7818609E-02  0.8759290E-01
        1   -1    0    0  501    0  0.00000000000E+00  0.00000000000E+00  0.17511397976E+04  0.17511397976E+04  0.50400001928E-02 0. -1.
       -1   -1    0    0    0  501  0.00000000000E+00  0.00000000000E+00 -0.41435802618E+03  0.41435802621E+03  0.50400001928E-02 0.  1.
    10030    2    1    2    0    0  0.00000000000E+00  0.00000000000E+00  0.13367817714E+04  0.21654978238E+04  0.17036417818E+04 0.  0.
        2    1    3    3  502    0 -0.10563038115E+03  0.84286409643E+03  0.74899469378E+03  0.11325063858E+04  0.25500000920E-02 0. -1.
       -2    1    3    3    0  502  0.10563038115E+03 -0.84286409643E+03  0.58778707767E+03  0.10329914381E+04  0.25500000920E-02 0.  1.
</event>
<event>
 5   0  0.1255362E-04  0.1697189E+04  0.7818609E-02  0.8762969E-01
        2   -1    0    0  501    0  0.00000000000E+00  0.00000000000E+00  0.25108065375E+04  0.25108065375E+04  0.25500000920E-02 0. -1.
       -2   -1    0    0    0  501  0.00000000000E+00  0.00000000000E+00 -0.28680541533E+03  0.28680541534E+03  0.25500000920E-02 0.  1.
    10030    2    1    2    0    0  0.00000000000E+00  0.00000000000E+00  0.22240011221E+04  0.27976119528E+04  0.16971893375E+04 0.  0.
        1    1    3    3  502    0  0.16806218361E+03  0.15099577106E+03 -0.23631766207E+03  0.32694136763E+03  0.50400001928E-02 0.  1.
       -1    1    3    3    0  502 -0.16806218361E+03 -0.15099577106E+03  0.24603187842E+04  0.24706705852E+04  0.50400001928E-02 0. -1.
</event>
<event>
 5   0  0.6564887E-05  0.1697905E+04  0.7818609E-02  0.8762560E-01
        1   -1    0    0  501    0  0.00000000000E+00  0.00000000000E+00  0.11924034475E+04  0.11924034475E+04  0.50400001928E-02 0.  1.
       -1   -1    0    0    0  501  0.00000000000E+00  0.00000000000E+00 -0.60442646315E+03  0.60442646317E+03  0.50400001928E-02 0. -1.
    10030    2    1    2    0    0  0.00000000000E+00  0.00000000000E+00  0.58797698437E+03  0.17968299107E+04  0.16979048247E+04 0.  0.
        4    1    3    3  502    0  0.15634964304E+03 -0.54874715436E+03  0.95922271540E+03  0.11160996734E+04  0.12699999809E+01 0.  1.
       -4    1    3    3    0  502 -0.15634964304E+03  0.54874715436E+03 -0.37124573103E+03  0.68073023732E+03  0.12699999809E+01 0. -1.
</event>
<event>
 5   0  0.6539134E-05  0.1703515E+04  0.7818609E-02  0.8759362E-01
        1   -1    0    0  501    0  0.00000000000E+00  0.00000000000E+00  0.74450050639E+03  0.74450050641E+03  0.50400001928E-02 0.  1.
       -1   -1    0    0    0  501  0.00000000000E+00  0.00000000000E+00 -0.97446650681E+03  0.97446650682E+03  0.50400001928E-02 0. -1.
    10030    2    1    2    0    0  0.00000000000E+00  0.00000000000E+00 -0.22996600042E+03  0.17189670132E+04  0.17035149636E+04 0.  0.
        2    1    3    3  502    0 -0.45376941014E+03 -0.32114878173E+03  0.53619806924E+03  0.77236752071E+03  0.25500000920E-02 0.  1.
       -2    1    3    3    0  502  0.45376941014E+03  0.32114878173E+03 -0.76616406965E+03  0.94659949251E+03  0.25500000920E-02 0. -1.
</event>
<event>
 5   0  0.6601906E-05  0.1688567E+04  0.7818609E-02  0.8767912E-01
        1   -1    0    0  501    0  0.00000000000E+00  0.00000000000E+00  0.10222318589E+04  0.10222318589E+04  0.50400001928E-02 0.  1.
       -1   -1    0    0    0  501  0.00000000000E+00  0.00000000000E+00 -0.69731183968E+03  0.69731183970E+03  0.50400001928E-02 0. -1.
    10030    2    1    2    0    0  0.00000000000E+00  0.00000000000E+00  0.32492001919E+03  0.17195436986E+04  0.16885667036E+04 0.  0.
        1    1    3    3  502    0  0.14181890227E+03  0.77020013832E+03  0.48367248366E+03  0.92046723221E+03  0.50400001928E-02 0.  1.
       -1    1    3    3    0  502 -0.14181890227E+03 -0.77020013832E+03 -0.15875246447E+03  0.79907646637E+03  0.50400001928E-02 0. -1.
</event>
<event>
 5   0  0.1255362E-04  0.1698886E+04  0.7818609E-02  0.8762000E-01
       -2   -1    0    0    0  501  0.00000000000E+00  0.00000000000E+00  0.71002991827E+03  0.71002991827E+03  0.25500000920E-02 0. -1.
        2   -1    0    0  501    0  0.00000000000E+00  0.00000000000E+00 -0.10162293016E+04  0.10162293016E+04  0.25500000920E-02 0.  1.
    10030    2    1    2    0    0  0.00000000000E+00  0.00000000000E+00 -0.30619938335E+03  0.17262592199E+04  0.16988857619E+04 0.  0.
        1    1    3    3  502    0  0.64514154079E+03  0.98533811235E+02 -0.70558533733E+03  0.96112808089E+03  0.50400001928E-02 0.  1.
       -1    1    3    3    0  502 -0.64514154079E+03 -0.98533811235E+02  0.39938595398E+03  0.76513113900E+03  0.50400001928E-02 0. -1.
</event>
<event>
 5   0  0.6615842E-05  0.1696317E+04  0.7818609E-02  0.8763468E-01
       -1   -1    0    0    0  501  0.00000000000E+00  0.00000000000E+00  0.13023849949E+04  0.13023849949E+04  0.50400001928E-02 0.  1.
        1   -1    0    0  501    0  0.00000000000E+00  0.00000000000E+00 -0.55235017976E+03  0.55235017978E+03  0.50400001928E-02 0. -1.
    10030    2    1    2    0    0  0.00000000000E+00  0.00000000000E+00  0.75003481514E+03  0.18547351747E+04  0.16963166993E+04 0.  0.
        3    1    3    3  502    0 -0.38038853714E+02  0.83896884925E+03  0.24538320017E+03  0.87494491800E+03  0.10100000352E+00 0. -1.
       -3    1    3    3    0  502  0.38038853714E+02 -0.83896884925E+03  0.50465161497E+03  0.97979025669E+03  0.10100000352E+00 0.  1.
</event>
<event>
 5   0  0.6834837E-05  0.1704841E+04  0.7818609E-02  0.8758608E-01
       -1   -1    0    0    0  501  0.00000000000E+00  0.00000000000E+00  0.84285422336E+03  0.84285422337E+03  0.50400001928E-02 0. -1.
        1   -1    0    0  501    0  0.00000000000E+00  0.00000000000E+00 -0.86209534574E+03  0.86209534576E+03  0.50400001928E-02 0.  1.
    10030    2    1    2    0    0  0.00000000000E+00  0.00000000000E+00 -0.19241122386E+02  0.17049495691E+04  0.17048409933E+04 0.  0.
        5    1    3    3  502    0 -0.63987890479E+03 -0.12864064029E+03  0.53868909253E+03  0.84628686362E+03  0.46999998093E+01 0. -1.
       -5    1    3    3    0  502  0.63987890479E+03  0.12864064029E+03 -0.55793021492E+03  0.85866270551E+03  0.46999998093E+01 0.  1.
</event>
<event>
 5   0  0.6615842E-05  0.1705721E+04  0.7818609E-02  0.8758108E-01
       -1   -1    0    0    0  501  0.00000000000E+00  0.00000000000E+00  0.12374489428E+04  0.12374489428E+04  0.50400001928E-02 0.  1.
        1   -1    0    0  501    0  0.00000000000E+00  0.00000000000E+00 -0.58779897460E+03  0.58779897462E+03  0.50400001928E-02 0. -1.
    10030    2    1    2    0    0  0.00000000000E+00  0.00000000000E+00  0.64964996822E+03  0.18252479174E+04  0.17057212196E+04 0.  0.
        3    1    3    3  502    0 -0.11437756124E+03 -0.73483648361E+03 -0.12192844176E+03  0.75361358750E+03  0.10100000352E+00 0. -1.
       -3    1    3    3    0  502  0.11437756124E+03  0.73483648361E+03  0.77157840999E+03  0.10716343299E+04  0.10100000352E+00 0.  1.
</event>
<event>
 5   0  0.1269175E-04  0.1703420E+04  0.7818609E-02  0.8759416E-01
        2   -1    0    0  501    0  0.00000000000E+00  0.00000000000E+00  0.18328872482E+04  0.18328872482E+04  0.25500000920E-02 0. -1.
       -2   -1    0    0    0  501  0.00000000000E+00  0.00000000000E+00 -0.39577465081E+03  0.39577465082E+03  0.25500000920E-02 0.  1.
    10030    2    1    2    0    0  0.00000000000E+00  0.00000000000E+00  0.14371125974E+04  0.22286618990E+04  0.17034204538E+04 0.  0.
        2    1    3    3  502    0  0.57646549420E+03  0.14899736580E+03  0.15153563614E+04  0.16281331589E+04  0.25500000920E-02 0. -1.
       -2    1    3    3    0  502 -0.57646549420E+03 -0.14899736580E+03 -0.78243764083E+02  0.60052874006E+03  0.25500000920E-02 0.  1.
</event>
<event>
 5   0  0.1269175E-04  0.1697520E+04  0.7818609E-02  0.8762780E-01
       -2   -1    0    0    0  501  0.00000000000E+00  0.00000000000E+00  0.51908252295E+03  0.51908252296E+03  0.25500000920E-02 0.  1.
        2   -1    0    0  501    0  0.00000000000E+00  0.00000000000E+00 -0.13878213349E+04  0.13878213349E+04  0.25500000920E-02 0. -1.
    10030    2    1    2    0    0  0.00000000000E+00  0.00000000000E+00 -0.86873881192E+03  0.19069038578E+04  0.16975203091E+04 0.  0.
        2    1    3    3  502    0 -0.24641442813E+03 -0.17481554150E+03  0.45663168670E+03  0.54753359828E+03  0.25500000920E-02 0.  1.
       -2    1    3    3    0  502  0.24641442813E+03  0.17481554150E+03 -0.13253704986E+04  0.13593702596E+04  0.25500000920E-02 0. -1.
</event>
<event>
 5   0  0.1285639E-04  0.1699677E+04  0.7818609E-02  0.8761549E-01
        2   -1    0    0  501    0  0.00000000000E+00  0.00000000000E+00  0.11232506449E+04  0.11232506449E+04  0.25500000920E-02 0. -1.
       -2   -1    0    0    0  501  0.00000000000E+00  0.00000000000E+00 -0.64297809479E+03  0.64297809479E+03  0.25500000920E-02 0.  1.
    10030    2    1    2    0    0  0.00000000000E+00  0.00000000000E+00  0.48027255011E+03  0.17662287397E+04  0.16996770983E+04 0.  0.
        4    1    3    3  502    0  0.74782412444E+03 -0.27169699460E+03  0.55043124319E+03  0.96748971279E+03  0.12699999809E+01 0. -1.
       -4    1    3    3    0  502 -0.74782412444E+03  0.27169699460E+03 -0.70158693085E+02  0.79873902690E+03  0.12699999809E+01 0.  1.
</event>
<event>
 5   0  0.4720875E-05  0.1701552E+04  0.7818609E-02  0.8760480E-01
        3   -1    0    0  501    0  0.00000000000E+00  0.00000000000E+00  0.11424018401E+04  0.11424018446E+04  0.10100000352E+00 0.  1.
       -3   -1    0    0    0  501  0.00000000000E+00  0.00000000000E+00 -0.63359457394E+03  0.63359458199E+03  0.10100000352E+00 0. -1.
    10030    2    1    2    0    0  0.00000000000E+00  0.00000000000E+00  0.50880726615E+03  0.17759964265E+04  0.17015517838E+04 0.  0.
        3    1    3    3  502    0 -0.29149479508E+03  0.73770925608E+03  0.57549145454E+03  0.97998703385E+03  0.10100000352E+00 0. -1.
       -3    1    3    3    0  502  0.29149479508E+03 -0.73770925608E+03 -0.66684188387E+02  0.79600939269E+03  0.10100000352E+00 0.  1.
</event>
<event>
 5   0  0.6615842E-05  0.1699483E+04  0.7818609E-02  0.8761659E-01
       -1   -1    0    0    0  501  0.00000000000E+00  0.00000000000E+00  0.85962255229E+03  0.85962255231E+03  0.50400001928E-02 0.  1.
        1   -1    0    0  501    0  0.00000000000E+00  0.00000000000E+00 -0.83997394498E+03  0.83997394499E+03  0.50400001928E-02 0. -1.
    10030    2    1    2    0    0  0.00000000000E+00  0.00000000000E+00  0.19648607314E+02  0.16995964973E+04  0.16994829172E+04 0.  0.
        3    1    3    3  502    0 -0.28404814973E+03  0.72987015754E+02 -0.78775647624E+03  0.84057761801E+03  0.10100000352E+00 0. -1.
       -3    1    3    3    0  502  0.28404814973E+03 -0.72987015754E+02  0.80740508356E+03  0.85901887930E+03  0.10100000352E+00 0.  1.
</event>
<event>
 5   0  0.6564887E-05  0.1690703E+04  0.7818609E-02  0.8766685E-01
       -1   -1    0    0    0  501  0.00000000000E+00  0.00000000000E+00  0.47770448428E+03  0.47770448431E+03  0.50400001928E-02 0.  1.
        1   -1    0    0  501    0  0.00000000000E+00  0.00000000000E+00 -0.14959432042E+04  0.14959432042E+04  0.50400001928E-02 0. -1.
    10030    2    1    2    0    0  0.00000000000E+00  0.00000000000E+00 -0.10182387199E+04  0.19736476885E+04  0.16907025485E+04 0.  0.
        4    1    3    3  502    0 -0.45939327098E+03  0.69385576980E+03 -0.33542610006E+03  0.89721251006E+03  0.12699999809E+01 0. -1.
       -4    1    3    3    0  502  0.45939327098E+03 -0.69385576980E+03 -0.68281261985E+03  0.10764351785E+04  0.12699999809E+01 0.  1.
</event>
<event>
 5   0  0.1333546E-04  0.1714533E+04  0.7818609E-02  0.8753119E-01
       -2   -1    0    0    0  501  0.00000000000E+00  0.00000000000E+00  0.42288224485E+03  0.42288224485E+03  0.25500000920E-02 0.  1.
        2   -1    0    0  501    0  0.00000000000E+00  0.00000000000E+00 -0.17378496557E+04  0.17378496557E+04  0.25500000920E-02 0. -1.
    10030    2    1    2    0    0  0.00000000000E+00  0.00000000000E+00 -0.13149674109E+04  0.21607319006E+04  0.17145328969E+04 0.  0.
        5    1    3    3  502    0 -0.49075722722E+02  0.27578630979E+03 -0.16785290366E+04  0.17017486101E+04  0.46999998093E+01 0. -1.
       -5    1    3    3    0  502  0.49075722722E+02 -0.27578630979E+03  0.36356162574E+03  0.45898329047E+03  0.46999998093E+01 0.  1.
</event>
<event>
 5   0  0.6834837E-05  0.1704252E+04  0.7818609E-02  0.8758943E-01
        1   -1    0    0  501    0  0.00000000000E+00  0.00000000000E+00  0.21813186344E+04  0.21813186344E+04  0.50400001928E-02 0. -1.
       -1   -1    0    0    0  501  0.00000000000E+00  0.00000000000E+00 -0.33288075635E+03  0.33288075639E+03  0.50400001928E-02 0.  1.
    10030    2    1    2    0    0  0.00000000000E+00  0.00000000000E+00  0.18484378781E+04  0.25141993908E+04  0.17042523251E+04 0.  0.
        5    1    3    3  502    0 -0.22996268768E+03 -0.21313266297E+03  0.20931058957E+04  0.21164646820E+04  0.46999998093E+01 0. -1.
       -5    1    3    3    0  502  0.22996268768E+03  0.21313266297E+03 -0.24466801760E+03  0.39773470880E+03  0.46999998093E+01 0.  1.
</event>
<event>
 5   0  0.6539134E-05  0.1700885E+04  0.7818609E-02  0.8760860E-01
        1   -1    0    0  501    0  0.00000000000E+00  0.00000000000E+00  0.18024552434E+04  0.18024552434E+04  0.50400001928E-02 0.  1.
       -1   -1    0    0    0  501  0.00000000000E+00  0.00000000000E+00 -0.40125968896E+03  0.40125968899E+03  0.50400001928E-02 0. -1.
    10030    2    1    2    0    0  0.00000000000E+00  0.00000000000E+00  0.14011955544E+04  0.22037149324E+04  0.17008852170E+04 0.  0.
        2    1    3    3  502    0  0.31172944639E+02 -0.56415890079E+03 -0.12292213978E+03  0.57823599877E+03  0.25500000920E-02 0. -1.
       -2    1    3    3    0  502 -0.31172944639E+02  0.56415890079E+03  0.15241176942E+04  0.16254789336E+04  0.25500000920E-02 0.  1.
</event>
<event>
 5   0  0.1393870E-04  0.1702675E+04  0.7818609E-02  0.8759840E-01
        2   -1    0    0  501    0  0.00000000000E+00  0.00000000000E+00  0.15830246009E+04  0.15830246009E+04  0.25500000920E-02 0. -1.
       -2   -1    0    0    0  501  0.00000000000E+00  0.00000000000E+00 -0.45784220306E+03  0.45784220306E+03  0.25500000920E-02 0.  1.
    10030    2    1    2    0    0  0.00000000000E+00  0.00000000000E+00  0.11251823979E+04  0.20408668040E+04  0.17026749200E+04 0.  0.
        3    1    3    3  502    0 -0.19923069092E+03 -0.35990105674E+03  0.14559912900E+04  0.15129878670E+04  0.10100000352E+00 0. -1.
       -3    1    3    3    0  502  0.19923069092E+03  0.35990105674E+03 -0.33080889213E+03  0.52787893702E+03  0.10100000352E+00 0.  1.
</event>
<event>
 5   0  0.6615842E-05  0.1698394E+04  0.7818609E-02  0.8762281E-01
       -1   -1    0    0    0  501  0.00000000000E+00  0.00000000000E+00  0.27330539158E+03  0.27330539163E+03  0.50400001928E-02 0.  1.
        1   -1    0    0  501    0  0.00000000000E+00  0.00000000000E+00 -0.26385701179E+04  0.26385701179E+04  0.50400001928E-02 0. -1.
    10030    2    1    2    0    0  0.00000000000E+00  0.00000000000E+00 -0.23652647263E+04  0.29118755095E+04  0.16983938758E+04 0.  0.
        3    1    3    3  502    0  0.66024054490E+03 -0.53264872866E+03 -0.11161601029E+04  0.14019435191E+04  0.10100000352E+00 0.  1.
       -3    1    3    3    0  502 -0.66024054490E+03  0.53264872866E+03 -0.12491046235E+04  0.15099319905E+04  0.10100000352E+00 0. -1.
</event>
<event>
 5   0  0.6615842E-05  0.1696926E+04  0.7818609E-02  0.8763120E-01
        1   -1    0    0  501    0  0.00000000000E+00  0.00000000000E+00  0.70768432848E+03  0.70768432850E+03  0.50400001928E-02 0.  1.
       -1   -1    0    0    0  501  0.00000000000E+00  0.00000000000E+00 -0.10172465149E+04  0.10172465149E+04  0.50400001928E-02 0. -1.
    10030    2    1    2    0    0  0.00000000000E+00  0.00000000000E+00 -0.30956218642E+03  0.17249308434E+04  0.16969259463E+04 0.  0.
        3    1    3    3  502    0 -0.18700255697E+03  0.25290252770E+03  0.64623368219E+03  0.71871247869E+03  0.10100000352E+00 0.  1.
       -3    1    3    3    0  502  0.18700255697E+03 -0.25290252770E+03 -0.95579586861E+03  0.10062183647E+04  0.10100000352E+00 0. -1.
</event>
<event>
 5   0  0.6615842E-05  0.1704401E+04  0.7818609E-02  0.8758858E-01
       -1   -1    0    0    0  501  0.00000000000E+00  0.00000000000E+00  0.17720668780E+04  0.17720668780E+04  0.50400001928E-02 0.  1.
        1   -1    0    0  501    0  0.00000000000E+00  0.00000000000E+00 -0.40982962374E+03  0.40982962377E+03  0.50400001928E-02 0. -1.
    10030    2    1    2    0    0  0.00000000000E+00  0.00000000000E+00  0.13622372542E+04  0.21818965017E+04  0.17044007767E+04 0.  0.
        3    1    3    3  502    0 -0.33997714468E+03 -0.44074068539E+03  0.15071990118E+04  0.16067002465E+04  0.10100000352E+00 0.  1.
       -3    1    3    3    0  502  0.33997714468E+03  0.44074068539E+03 -0.14496175761E+03  0.57519625523E+03  0.10100000352E+00 0. -1.
</event>
<event>
 5   0  0.6539134E-05  0.1798565E+04  0.7818609E-02  0.8707063E-01
        1   -1    0    0  501    0  0.00000000000E+00  0.00000000000E+00  0.17049336869E+04  0.17049336869E+04  0.50400001928E-02 0. -1.
       -1   -1    0    0    0  501  0.00000000000E+00  0.00000000000E+00 -0.47433479245E+03  0.47433479248E+03  0.50400001928E-02 0.  1.
    10030    2    1    2    0    0  0.00000000000E+00  0.00000000000E+00  0.12305988945E+04  0.21792684794E+04  0.17985653912E+04 0.  0.
        2    1    3    3  502    0 -0.79026935030E+03 -0.30060616764E+03  0.98643402213E+03  0.12992081412E+04  0.25500000920E-02 0. -1.
       -2    1    3    3    0  502  0.79026935030E+03  0.30060616764E+03  0.24416487234E+03  0.88006033824E+03  0.25500000920E-02 0.  1.
</event>
<event>
 5   0  0.6564887E-05  0.1672218E+04  0.7818609E-02  0.8777370E-01
        1   -1    0    0  501    0  0.00000000000E+00  0.00000000000E+00  0.19041030441E+04  0.19041030441E+04  0.50400001928E-02 0. -1.
       -1   -1    0    0    0  501  0.00000000000E+00  0.00000000000E+00 -0.36714288270E+03  0.36714288274E+03  0.50400001928E-02 0.  1.
    10030    2    1    2    0    0  0.00000000000E+00  0.00000000000E+00  0.15369601614E+04  0.22712459268E+04  0.16722175464E+04 0.  0.
        4    1    3    3  502    0  0.25903683481E+03 -0.63670042593E+03  0.14150128778E+04  0.15731339966E+04  0.12699999809E+01 0. -1.
       -4    1    3    3    0  502 -0.25903683481E+03  0.63670042593E+03  0.12194728357E+03  0.69811193017E+03  0.12699999809E+01 0.  1.
</event>
<event>
 5   0  0.6564887E-05  0.1705337E+04  0.7818609E-02  0.8758326E-01
        1   -1    0    0  501    0  0.00000000000E+00  0.00000000000E+00  0.14431474792E+04  0.14431474792E+04  0.50400001928E-02 0.  1.
       -1   -1    0    0    0  501  0.00000000000E+00  0.00000000000E+00 -0.50379035273E+03  0.50379035276E+03  0.50400001928E-02 0. -1.
    10030    2    1    2    0    0  0.00000000000E+00  0.00000000000E+00  0.93935712649E+03  0.19469378320E+04  0.17053372425E+04 0.  0.
        4    1    3    3  502    0 -0.37514510891E+02 -0.25692487420E+02  0.14417613205E+04  0.14424786864E+04  0.12699999809E+01 0.  1.
       -4    1    3    3    0  502  0.37514510891E+02  0.25692487420E+02 -0.50240419406E+03  0.50445914557E+03  0.12699999809E+01 0. -1.
</event>
<event>
 5   0  0.1393870E-04  0.1702819E+04  0.7818609E-02  0.8759758E-01
       -2   -1    0    0    0  501  0.00000000000E+00  0.00000000000E+00  0.41230082863E+03  0.41230082864E+03  0.25500000920E-02 0. -1.
        2   -1    0    0  501    0  0.00000000000E+00  0.00000000000E+00 -0.17581780579E+04  0.17581780579E+04  0.25500000920E-02 0.  1.
    10030    2    1    2    0    0  0.00000000000E+00  0.00000000000E+00 -0.13458772293E+04  0.21704788865E+04  0.17028191568E+04 0.  0.
        3    1    3    3  502    0 -0.38981902742E+03 -0.21556504253E+03  0.25191778393E+03  0.51175164070E+03  0.10100000352E+00 0. -1.
       -3    1    3    3    0  502  0.38981902742E+03  0.21556504253E+03 -0.15977950132E+04  0.16587272458E+04  0.10100000352E+00 0.  1.
</event>
<event>
 5   0  0.1285639E-04  0.1697922E+04  0.7818609E-02  0.8762550E-01
       -2   -1    0    0    0  501  0.00000000000E+00  0.00000000000E+00  0.83901850451E+03  0.83901850452E+03  0.25500000920E-02 0.  1.
        2   -1    0    0  501    0  0.00000000000E+00  0.00000000000E+00 -0.85902169554E+03  0.85902169554E+03  0.25500000920E-02 0. -1.
    10030    2    1    2    0    0  0.00000000000E+00  0.00000000000E+00 -0.20003191025E+02  0.16980402001E+04  0.16979223755E+04 0.  0.
        4    1    3    3  502    0 -0.54595156179E+03  0.55698768642E+03  0.32533510072E+03  0.84506977895E+03  0.12699999809E+01 0.  1.
       -4    1    3    3    0  502  0.54595156179E+03 -0.55698768642E+03 -0.34533829174E+03  0.85297042111E+03  0.12699999809E+01 0. -1.
</event>
<event>
 5   0  0.1285639E-04  0.1705143E+04  0.7818609E-02  0.8758437E-01
       -2   -1    0    0    0  501  0.00000000000E+00  0.00000000000E+00  0.70288771295E+03  0.70288771295E+03  0.25500000920E-02 0.  1.
        2   -1    0    0  501    0  0.00000000000E+00  0.00000000000E+00 -0.10341313608E+04  0.10341313608E+04  0.25500000920E-02 0. -1.
    10030    2    1    2    0    0  0.00000000000E+00  0.00000000000E+00 -0.33124364786E+03  0.17370190738E+04  0.17051430756E+04 0.  0.
        4    1    3    3  502    0 -0.68062733624E+03  0.71855290415E+02  0.35227150216E+03  0.76974903555E+03  0.12699999809E+01 0.  1.
       -4    1    3    3    0  502  0.68062733624E+03 -0.71855290415E+02 -0.68351515003E+03  0.96727003821E+03  0.12699999809E+01 0. -1.
</event>
<event>
 5   0  0.6834837E-05  0.1698083E+04  0.7818609E-02  0.8762459E-01
        1   -1    0    0  501    0  0.00000000000E+00  0.00000000000E+00  0.78389659041E+03  0.78389659043E+03  0.50400001928E-02 0.  1.
       -1   -1    0    0    0  501  0.00000000000E+00  0.00000000000E+00 -0.91959973254E+03  0.91959973256E+03  0.50400001928E-02 0. -1.
    10030    2    1    2    0    0  0.00000000000E+00  0.00000000000E+00 -0.13570314213E+03  0.17034963230E+04  0.16980825597E+04 0.  0.
        5    1    3    3  502    0 -0.40770891384E+03 -0.48945331093E+03  0.49523813485E+03  0.80689156781E+03  0.46999998093E+01 0.  1.
       -5    1    3    3    0  502  0.40770891384E+03  0.48945331093E+03 -0.63094127698E+03  0.89660475517E+03  0.46999998093E+01 0. -1.
</event>
<event>
 5   0  0.6615842E-05  0.1695862E+04  0.7818609E-02  0.8763728E-01
       -1   -1    0    0    0  501  0.00000000000E+00  0.00000000000E+00  0.33193789058E+03  0.33193789061E+03  0.50400001928E-02 0. -1.
        1   -1    0    0  501    0  0.00000000000E+00  0.00000000000E+00 -0.21660293614E+04  0.21660293614E+04  0.50400001928E-02 0.  1.
    10030    2    1    2    0    0  0.00000000000E+00  0.00000000000E+00 -0.18340914708E+04  0.24979672520E+04  0.16958622789E+04 0.  0.
        3    1    3    3  502    0 -0.75391902573E+03  0.21426122986E+03 -0.13936295525E+04  0.15989074745E+04  0.10100000352E+00 0.  1.
       -3    1    3    3    0  502  0.75391902573E+03 -0.21426122986E+03 -0.44046191830E+03  0.89905977757E+03  0.10100000352E+00 0. -1.
</event>
<event>
 5   0  0.1285639E-04  0.1700030E+04  0.7818609E-02  0.8761347E-01
        2   -1    0    0  501    0  0.00000000000E+00  0.00000000000E+00  0.10998017292E+04  0.10998017293E+04  0.25500000920E-02 0.  1.
       -2   -1    0    0    0  501  0.00000000000E+00  0.00000000000E+00 -0.65695998596E+03  0.65695998596E+03  0.25500000920E-02 0. -1.
    10030    2    1    2    0    0  0.00000000000E+00  0.00000000000E+00  0.44284174329E+03  0.17567617152E+04  0.17000302687E+04 0.  0.
        4    1    3    3  502    0  0.73835936935E+03  0.33168918662E+03  0.48956386215E+03  0.94597392293E+03  0.12699999809E+01 0.  1.
       -4    1    3    3    0  502 -0.73835936935E+03 -0.33168918662E+03 -0.46722118863E+02  0.81078779229E+03  0.12699999809E+01 0. -1.
</event>
<event>
 5   0  0.1333546E-04  0.1720194E+04  0.7818609E-02  0.8749930E-01
        2   -1    0    0  501    0  0.00000000000E+00  0.00000000000E+00  0.11310413101E+04  0.11310413101E+04  0.25500000920E-02 0.  1.
       -2   -1    0    0    0  501  0.00000000000E+00  0.00000000000E+00 -0.65405783611E+03  0.65405783612E+03  0.25500000920E-02 0. -1.
    10030    2    1    2    0    0  0.00000000000E+00  0.00000000000E+00  0.47698347396E+03  0.17850991462E+04  0.17201935145E+04 0.  0.
        5    1    3    3  502    0  0.76243771068E+03  0.83515929385E+02  0.64235224479E+03  0.10004622279E+04  0.46999998093E+01 0.  1.
       -5    1    3    3    0  502 -0.76243771068E+03 -0.83515929385E+02 -0.16536877083E+03  0.78463691826E+03  0.46999998093E+01 0. -1.
</event>
<event>
 5   0  0.6834837E-05  0.1687985E+04  0.7818609E-02  0.8768247E-01
       -1   -1    0    0    0  501  0.00000000000E+00  0.00000000000E+00  0.50473992035E+03  0.50473992038E+03  0.50400001928E-02 0. -1.
        1   -1    0    0  501    0  0.00000000000E+00  0.00000000000E+00 -0.14112684646E+04  0.14112684646E+04  0.50400001928E-02 0.  1.
    10030    2    1    2    0    0  0.00000000000E+00  0.00000000000E+00 -0.90652854424E+03  0.19160083850E+04  0.16879852279E+04 0.  0.
        5    1    3    3  502    0  0.32287942263E+03 -0.47809971973E+03  0.24596249868E+03  0.62717629445E+03  0.46999998093E+01 0. -1.
       -5    1    3    3    0  502 -0.32287942263E+03  0.47809971973E+03 -0.11524910429E+04  0.12888320905E+04  0.46999998093E+01 0.  1.
</event>
<event>
 5   0  0.6615842E-05  0.1705210E+04  0.7818609E-02  0.8758398E-01
       -1   -1    0    0    0  501  0.00000000000E+00  0.00000000000E+00  0.46353497227E+03  0.46353497230E+03  0.50400001928E-02 0.  1.
        1   -1    0    0  501    0  0.00000000000E+00  0.00000000000E+00 -0.15682433803E+04  0.15682433803E+04  0.50400001928E-02 0. -1.
    10030    2    1    2    0    0  0.00000000000E+00  0.00000000000E+00 -0.11047084081E+04  0.20317783526E+04  0.17052104291E+04 0.  0.
        3    1    3    3  502    0  0.67200191981E+03 -0.50271805287E+03 -0.37313712094E+03  0.91844615637E+03  0.10100000352E+00 0. -1.
       -3    1    3    3    0  502 -0.67200191981E+03  0.50271805287E+03 -0.73157128712E+03  0.11133321963E+04  0.10100000352E+00 0.  1.
</event>
<event>
 5   0  0.1269175E-04  0.1701658E+04  0.7818609E-02  0.8760419E-01
       -2   -1    0    0    0  501  0.00000000000E+00  0.00000000000E+00  0.11712269308E+04  0.11712269308E+04  0.25500000920E-02 0. -1.
        2   -1    0    0  501    0  0.00000000000E+00  0.00000000000E+00 -0.61807822376E+03  0.61807822377E+03  0.25500000920E-02 0.  1.
    10030    2    1    2    0    0  0.00000000000E+00  0.00000000000E+00  0.55314870705E+03  0.17893051546E+04  0.17016578517E+04 0.  0.
        2    1    3    3  502    0  0.26495041363E+03 -0.49076236935E+03  0.95221439899E+03  0.11035210403E+04  0.25500000920E-02 0. -1.
       -2    1    3    3    0  502 -0.26495041363E+03  0.49076236935E+03 -0.39906569194E+03  0.68578411423E+03  0.25500000920E-02 0.  1.
</event>
<event>
 5   0  0.1333546E-04  0.1688244E+04  0.7818609E-02  0.8768098E-01
       -2   -1    0    0    0  501  0.00000000000E+00  0.00000000000E+00  0.67617697441E+03  0.67617697442E+03  0.25500000920E-02 0.  1.
        2   -1    0    0  501    0  0.00000000000E+00  0.00000000000E+00 -0.10537805704E+04  0.10537805704E+04  0.25500000920E-02 0. -1.
    10030    2    1    2    0    0  0.00000000000E+00  0.00000000000E+00 -0.37760359601E+03  0.17299575448E+04  0.16882442451E+04 0.  0.
        5    1    3    3  502    0  0.10501470733E+03 -0.53852153316E+03  0.46851992151E+03  0.72150297108E+03  0.46999998093E+01 0.  1.
       -5    1    3    3    0  502 -0.10501470733E+03  0.53852153316E+03 -0.84612351752E+03  0.10084545738E+04  0.46999998093E+01 0. -1.
</event>
<event>
 5   0  0.1255362E-04  0.1694024E+04  0.7818609E-02  0.8764780E-01
       -2   -1    0    0    0  501  0.00000000000E+00  0.00000000000E+00  0.40106299214E+03  0.40106299215E+03  0.25500000920E-02 0. -1.
        2   -1    0    0  501    0  0.00000000000E+00  0.00000000000E+00 -0.17888194787E+04  0.17888194787E+04  0.25500000920E-02 0.  1.
    10030    2    1    2    0    0  0.00000000000E+00  0.00000000000E+00 -0.13877564866E+04  0.21898824709E+04  0.16940239580E+04 0.  0.
        1    1    3    3  502    0 -0.25564388575E+03 -0.68866621742E+03 -0.12389888678E+04  0.14403847993E+04  0.50400001928E-02 0.  1.
       -1    1    3    3    0  502  0.25564388575E+03  0.68866621742E+03 -0.14876761876E+03  0.74949767161E+03  0.50400001928E-02 0. -1.
</event>
<event>
 5   0  0.1285639E-04  0.1698951E+04  0.7818609E-02  0.8761963E-01
        2   -1    0    0  501    0  0.00000000000E+00  0.00000000000E+00  0.62057038325E+03  0.62057038325E+03  0.25500000920E-02 0. -1.
       -2   -1    0    0    0  501  0.00000000000E+00  0.00000000000E+00 -0.11628153075E+04  0.11628153075E+04  0.25500000920E-02 0.  1.
    10030    2    1    2    0    0  0.00000000000E+00  0.00000000000E+00 -0.54224492424E+03  0.17833856907E+04  0.16989511365E+04 0.  0.
        4    1    3    3  502    0 -0.96793276098E+01  0.46278257463E+03 -0.10188035456E+04  0.11190280060E+04  0.12699999809E+01 0.  1.
       -4    1    3    3    0  502  0.96793276098E+01 -0.46278257463E+03  0.47655862137E+03  0.66435768474E+03  0.12699999809E+01 0. -1.
</event>
<event>
 5   0  0.1333546E-04  0.1699180E+04  0.7818609E-02  0.8761832E-01
        2   -1    0    0  501    0  0.00000000000E+00  0.00000000000E+00  0.12660246974E+04  0.12660246974E+04  0.25500000920E-02 0. -1.
       -2   -1    0    0    0  501  0.00000000000E+00  0.00000000000E+00 -0.57013365115E+03  0.57013365115E+03  0.25500000920E-02 0.  1.
    10030    2    1    2    0    0  0.00000000000E+00  0.00000000000E+00  0.69589104624E+03  0.18361583485E+04  0.16991801354E+04 0.  0.
        5    1    3    3  502    0 -0.30666196492E+03 -0.27165070065E+03 -0.45632886736E+03  0.61326486046E+03  0.46999998093E+01 0.  1.
       -5    1    3    3    0  502  0.30666196492E+03  0.27165070065E+03  0.11522199136E+04  0.12228934881E+04  0.46999998093E+01 0. -1.
</event>
<event>
 5   0  0.1393870E-04  0.1702507E+04  0.7818609E-02  0.8759936E-01
       -2   -1    0    0    0  501  0.00000000000E+00  0.00000000000E+00  0.43919988970E+03  0.43919988970E+03  0.25500000920E-02 0.  1.
        2   -1    0    0  501    0  0.00000000000E+00  0.00000000000E+00 -0.16498914275E+04  0.16498914275E+04  0.25500000920E-02 0. -1.
    10030    2    1    2    0    0  0.00000000000E+00  0.00000000000E+00 -0.12106915378E+04  0.20890913172E+04  0.17025065439E+04 0.  0.
        3    1    3    3  502    0 -0.87049836275E+02 -0.43598597693E+03 -0.14961081324E+04  0.15607693616E+04  0.10100000352E+00 0. -1.
       -3    1    3    3    0  502  0.87049836275E+02  0.43598597693E+03  0.28541659462E+03  0.52832195559E+03  0.10100000352E+00 0.  1.
</event>
<event>
 5   0  0.6564887E-05  0.1709323E+04  0.7818609E-02  0.8756065E-01
       -1   -1    0    0    0  501  0.00000000000E+00  0.00000000000E+00  0.35293092342E+03  0.35293092346E+03  0.50400001928E-02 0. -1.
        1   -1    0    0  501    0  0.00000000000E+00  0.00000000000E+00 -0.20696568651E+04  0.20696568651E+04  0.50400001928E-02 0.  1.
    10030    2    1    2    0    0  0.00000000000E+00  0.00000000000E+00 -0.17167259417E+04  0.24225877885E+04  0.17093225659E+04 0.  0.
        4    1    3    3  502    0 -0.33242897084E+02  0.60723991502E+03 -0.17094376918E+04  0.18143936287E+04  0.12699999809E+01 0.  1.
       -4    1    3    3    0  502  0.33242897084E+02 -0.60723991502E+03 -0.72882498109E+01  0.60819415986E+03  0.12699999809E+01 0. -1.
</event>
<event>
 5   0  0.1333546E-04  0.1699373E+04  0.7818609E-02  0.8761722E-01
        2   -1    0    0  501    0  0.00000000000E+00  0.00000000000E+00  0.86989365523E+03  0.86989365523E+03  0.25500000920E-02 0.  1.
       -2   -1    0    0    0  501  0.00000000000E+00  0.00000000000E+00 -0.82994845338E+03  0.82994845338E+03  0.25500000920E-02 0. -1.
    10030    2    1    2    0    0  0.00000000000E+00  0.00000000000E+00  0.39945201852E+02  0.16998421086E+04  0.16993727005E+04 0.  0.
        5    1    3    3  502    0  0.55973654977E+03 -0.79802456181E+02 -0.61445125708E+03  0.83501249960E+03  0.46999998093E+01 0. -1.
       -5    1    3    3    0  502 -0.55973654977E+03  0.79802456181E+02  0.65439645893E+03  0.86482960901E+03  0.46999998093E+01 0.  1.
</event>
<event>
 5   0  0.6834837E-05  0.1707128E+04  0.7818609E-02  0.8757309E-01
       -1   -1    0    0    0  501  0.00000000000E+00  0.00000000000E+00  0.44242929903E+03  0.44242929906E+03  0.50400001928E-02 0.  1.
        1   -1    0    0  501    0  0.00000000000E+00  0.00000000000E+00 -0.16467522864E+04  0.16467522864E+04  0.50400001928E-02 0. -1.
    10030    2    1    2    0    0  0.00000000000E+00  0.00000000000E+00 -0.12043229873E+04  0.20891815854E+04  0.17071279504E+04 0.  0.
        5    1    3    3  502    0  0.40030485180E+03 -0.63106801927E+03 -0.97489327962E+02  0.75366907750E+03  0.46999998093E+01 0.  1.
       -5    1    3    3    0  502 -0.40030485180E+03  0.63106801927E+03 -0.11068336594E+04  0.13355125079E+04  0.46999998093E+01 0. -1.
</event>
<event>
 5   0  0.6834837E-05  0.1694509E+04  0.7818609E-02  0.8764502E-01
        1   -1    0    0  501    0  0.00000000000E+00  0.00000000000E+00  0.91774336087E+03  0.91774336089E+03  0.50400001928E-02 0.  1.
       -1   -1    0    0    0  501  0.00000000000E+00  0.00000000000E+00 -0.78217966346E+03  0.78217966347E+03  0.50400001928E-02 0. -1.
    10030    2    1    2    0    0  0.00000000000E+00  0.00000000000E+00  0.13556369741E+03  0.16999230244E+04  0.16945090064E+04 0.  0.
        5    1    3    3  502    0  0.37289256222E+03  0.24921350293E+03  0.78887036711E+03  0.90746613110E+03  0.46999998093E+01 0.  1.
       -5    1    3    3    0  502 -0.37289256222E+03 -0.24921350293E+03 -0.65330666970E+03  0.79245689326E+03  0.46999998093E+01 0. -1.
</event>
<event>
 5   0  0.6834837E-05  0.1698263E+04  0.7818609E-02  0.8762356E-01
        1   -1    0    0  501    0  0.00000000000E+00  0.00000000000E+00  0.68317035681E+03  0.68317035683E+03  0.50400001928E-02 0.  1.
       -1   -1    0    0    0  501  0.00000000000E+00  0.00000000000E+00 -0.10554093130E+04  0.10554093130E+04  0.50400001928E-02 0. -1.
    10030    2    1    2    0    0  0.00000000000E+00  0.00000000000E+00 -0.37223895615E+03  0.17385796698E+04  0.16982630620E+04 0.  0.
        5    1    3    3  502    0  0.82899153080E+03  0.59399259985E+02 -0.80739581859E+01  0.83116936242E+03  0.46999998093E+01 0.  1.
       -5    1    3    3    0  502 -0.82899153080E+03 -0.59399259985E+02 -0.36416499797E+03  0.90741030739E+03  0.46999998093E+01 0. -1.
</event>
<event>
 5   0  0.6601906E-05  0.1704480E+04  0.7818609E-02  0.8758813E-01
       -1   -1    0    0    0  501  0.00000000000E+00  0.00000000000E+00  0.40659526282E+03  0.40659526285E+03  0.50400001928E-02 0. -1.
        1   -1    0    0  501    0  0.00000000000E+00  0.00000000000E+00 -0.17863288096E+04  0.17863288096E+04  0.50400001928E-02 0.  1.
    10030    2    1    2    0    0  0.00000000000E+00  0.00000000000E+00 -0.13797335468E+04  0.21929240725E+04  0.17044797821E+04 0.  0.
        1    1    3    3  502    0  0.64890524450E+02 -0.59646211078E+03 -0.14685681615E+04  0.15864016751E+04  0.50400001928E-02 0.  1.
       -1    1    3    3    0  502 -0.64890524450E+02  0.59646211078E+03  0.88834614667E+02  0.60652239740E+03  0.50400001928E-02 0. -1.
</event>
<event>
 5   0  0.1393870E-04  0.1583267E+04  0.7818609E-02  0.8830894E-01
       -2   -1    0    0    0  501  0.00000000000E+00  0.00000000000E+00  0.11764756327E+04  0.11764756327E+04  0.25500000920E-02 0.  1.
        2   -1    0    0  501    0  0.00000000000E+00  0.00000000000E+00 -0.53267898810E+03  0.53267898811E+03  0.25500000920E-02 0. -1.
    10030    2    1    2    0    0  0.00000000000E+00  0.00000000000E+00  0.64379664457E+03  0.17091546208E+04  0.15832673174E+04 0.  0.
        3    1    3    3  502    0 -0.33217806226E+03  0.66085395958E+03  0.17304712376E+02  0.73984436486E+03  0.10100000352E+00 0. -1.
       -3    1    3    3    0  502  0.33217806226E+03 -0.66085395958E+03  0.62649193219E+03  0.96931025593E+03  0.10100000352E+00 0.  1.
</event>
<event>
 5   0  0.4720875E-05  0.1695275E+04  0.7818609E-02  0.8764064E-01
       -4   -1    0    0    0  501  0.00000000000E+00  0.00000000000E+00  0.66649400873E+03  0.66649521872E+03  0.12699999809E+01 0. -1.
        4   -1    0    0  501    0  0.00000000000E+00  0.00000000000E+00 -0.10780103472E+04  0.10780110953E+04  0.12699999809E+01 0.  1.
    10030    2    1    2    0    0  0.00000000000E+00  0.00000000000E+00 -0.41151633843E+03  0.17445063140E+04  0.16952747809E+04 0.  0.
        5    1    3    3  502    0  0.41188907407E+03  0.81043525478E+02 -0.96351660561E+03  0.10510028552E+04  0.46999998093E+01 0.  1.
       -5    1    3    3    0  502 -0.41188907407E+03 -0.81043525478E+02  0.55200026718E+03  0.69350345877E+03  0.46999998093E+01 0. -1.
</event>
<event>
 5   0  0.6564887E-05  0.1688353E+04  0.7818609E-02  0.8768035E-01
       -1   -1    0    0    0  501  0.00000000000E+00  0.00000000000E+00  0.11275323521E+04  0.11275323521E+04  0.50400001928E-02 0.  1.
        1   -1    0    0  501    0  0.00000000000E+00  0.00000000000E+00 -0.63202987761E+03  0.63202987763E+03  0.50400001928E-02 0. -1.
    10030    2    1    2    0    0  0.00000000000E+00  0.00000000000E+00  0.49550247451E+03  0.17595622298E+04  0.16883532030E+04 0.  0.
        4    1    3    3  502    0 -0.29531160145E+03  0.60722814927E+03  0.77577344723E+03  0.10284750952E+04  0.12699999809E+01 0.  1.
       -4    1    3    3    0  502  0.29531160145E+03 -0.60722814927E+03 -0.28027097272E+03  0.73108713452E+03  0.12699999809E+01 0. -1.
</event>
<event>
 5   0  0.1269175E-04  0.1675852E+04  0.7818609E-02  0.8775258E-01
       -2   -1    0    0    0  501  0.00000000000E+00  0.00000000000E+00  0.48324968180E+03  0.48324968181E+03  0.25500000920E-02 0. -1.
        2   -1    0    0  501    0  0.00000000000E+00  0.00000000000E+00 -0.14529142015E+04  0.14529142015E+04  0.25500000920E-02 0.  1.
    10030    2    1    2    0    0  0.00000000000E+00  0.00000000000E+00 -0.96966451968E+03  0.19361638833E+04  0.16758524106E+04 0.  0.
        2    1    3    3  502    0 -0.10966406945E+03  0.59784287538E+03 -0.11512068005E+04  0.13018138920E+04  0.25500000920E-02 0.  1.
       -2    1    3    3    0  502  0.10966406945E+03 -0.59784287538E+03  0.18154228082E+03  0.63434999133E+03  0.25500000920E-02 0. -1.
</event>
<event>
 5   0  0.1269175E-04  0.1698932E+04  0.7818609E-02  0.8761974E-01
       -2   -1    0    0    0  501  0.00000000000E+00  0.00000000000E+00  0.55598042884E+03  0.55598042885E+03  0.25500000920E-02 0.  1.
        2   -1    0    0  501    0  0.00000000000E+00  0.00000000000E+00 -0.12978735830E+04  0.12978735830E+04  0.25500000920E-02 0. -1.
    10030    2    1    2    0    0  0.00000000000E+00  0.00000000000E+00 -0.74189315417E+03  0.18538540119E+04  0.16989317953E+04 0.  0.
        2    1    3    3  502    0 -0.72393138524E+03 -0.75410344323E+02  0.10697501414E+03  0.73566774038E+03  0.25500000920E-02 0.  1.
       -2    1    3    3    0  502  0.72393138524E+03  0.75410344323E+02 -0.84886816832E+03  0.11181862715E+04  0.25500000920E-02 0. -1.
</event>
<event>
 5   0  0.6601906E-05  0.1699750E+04  0.7818609E-02  0.8761507E-01
       -1   -1    0    0    0  501  0.00000000000E+00  0.00000000000E+00  0.47562648634E+03  0.47562648637E+03  0.50400001928E-02 0. -1.
        1   -1    0    0  501    0  0.00000000000E+00  0.00000000000E+00 -0.15186018499E+04  0.15186018499E+04  0.50400001928E-02 0.  1.
    10030    2    1    2    0    0  0.00000000000E+00  0.00000000000E+00 -0.10429753635E+04  0.19942283363E+04  0.16997497016E+04 0.  0.
        1    1    3    3  502    0  0.14658106392E+03  0.31376711742E+03  0.38908557122E+03  0.52088712216E+03  0.50400001928E-02 0. -1.
       -1    1    3    3    0  502 -0.14658106392E+03 -0.31376711742E+03 -0.14320609348E+04  0.14733412141E+04  0.50400001928E-02 0.  1.
</event>
<event>
 5   0  0.1333546E-04  0.1697853E+04  0.7818609E-02  0.8762590E-01
       -2   -1    0    0    0  501  0.00000000000E+00  0.00000000000E+00  0.28893950840E+03  0.28893950841E+03  0.25500000920E-02 0.  1.
        2   -1    0    0  501    0  0.00000000000E+00  0.00000000000E+00 -0.24942105494E+04  0.24942105494E+04  0.25500000920E-02 0. -1.
    10030    2    1    2    0    0  0.00000000000E+00  0.00000000000E+00 -0.22052710410E+04  0.27831500578E+04  0.16978527262E+04 0.  0.
        5    1    3    3  502    0  0.48479294323E+03  0.61638338157E+03 -0.56969764795E+03  0.96929364537E+03  0.46999998093E+01 0.  1.
       -5    1    3    3    0  502 -0.48479294323E+03 -0.61638338157E+03 -0.16355733931E+04  0.18138564125E+04  0.46999998093E+01 0. -1.
</event>
<event>
 5   0  0.6615842E-05  0.1702375E+04  0.7818609E-02  0.8760011E-01
       -1   -1    0    0    0  501  0.00000000000E+00  0.00000000000E+00  0.47740572881E+03  0.47740572884E+03  0.50400001928E-02 0.  1.
        1   -1    0    0  501    0  0.00000000000E+00  0.00000000000E+00 -0.15176193227E+04  0.15176193227E+04  0.50400001928E-02 0. -1.
    10030    2    1    2    0    0  0.00000000000E+00  0.00000000000E+00 -0.10402135939E+04  0.19950250516E+04  0.17023749985E+04 0.  0.
        3    1    3    3  502    0 -0.55592353738E+03 -0.63608447651E+03 -0.39794873458E+03  0.93381885086E+03  0.10100000352E+00 0. -1.
       -3    1    3    3    0  502  0.55592353738E+03  0.63608447651E+03 -0.64226485933E+03  0.10612062007E+04  0.10100000352E+00 0.  1.
</event>
<event>
 5   0  0.1285639E-04  0.1688960E+04  0.7818609E-02  0.8767686E-01
        2   -1    0    0  501    0  0.00000000000E+00  0.00000000000E+00  0.12703919646E+04  0.12703919646E+04  0.25500000920E-02 0.  1.
       -2   -1    0    0    0  501  0.00000000000E+00  0.00000000000E+00 -0.56135953554E+03  0.56135953554E+03  0.25500000920E-02 0. -1.
    10030    2    1    2    0    0  0.00000000000E+00  0.00000000000E+00  0.70903242909E+03  0.18317515002E+04  0.16889602046E+04 0.  0.
        4    1    3    3  502    0  0.22652812838E+03 -0.63140885081E+03  0.91087022075E+03  0.11312286691E+04  0.12699999809E+01 0.  1.
       -4    1    3    3    0  502 -0.22652812838E+03  0.63140885081E+03 -0.20183779166E+03  0.70052283108E+03  0.12699999809E+01 0. -1.
</event>
<event>
 5   0  0.4720875E-05  0.1692975E+04  0.7818609E-02  0.8765381E-01
        4   -1    0    0  501    0  0.00000000000E+00  0.00000000000E+00  0.14070683072E+04  0.14070688803E+04  0.12699999809E+01 0. -1.
       -4   -1    0    0    0  501  0.00000000000E+00  0.00000000000E+00 -0.50924242106E+03  0.50924400468E+03  0.12699999809E+01 0.  1.
    10030    2    1    2    0    0  0.00000000000E+00  0.00000000000E+00  0.89782588613E+03  0.19163128850E+04  0.16929748230E+04 0.  0.
        5    1    3    3  502    0  0.69636338950E+03 -0.27740226959E+03  0.37862250750E+01  0.74960684022E+03  0.46999998093E+01 0.  1.
       -5    1    3    3    0  502 -0.69636338950E+03  0.27740226959E+03  0.89403966106E+03  0.11667060448E+04  0.46999998093E+01 0. -1.
</event>
<event>
 5   0  0.6601906E-05  0.1700167E+04  0.7818609E-02  0.8761269E-01
       -1   -1    0    0    0  501  0.00000000000E+00  0.00000000000E+00  0.39660116189E+03  0.39660116193E+03  0.50400001928E-02 0.  1.
        1   -1    0    0  501    0  0.00000000000E+00  0.00000000000E+00 -0.18220884002E+04  0.18220884002E+04  0.50400001928E-02 0. -1.
    10030    2    1    2    0    0  0.00000000000E+00  0.00000000000E+00 -0.14254872383E+04  0.22186895621E+04  0.17001674937E+04 0.  0.
        1    1    3    3  502    0 -0.83535663358E+03 -0.93272816081E+02 -0.54704750949E+03  0.10028865844E+04  0.50400001928E-02 0.  1.
       -1    1    3    3    0  502  0.83535663358E+03  0.93272816081E+02 -0.87843972879E+03  0.12158029777E+04  0.50400001928E-02 0. -1.
</event>
<event>
 5   0  0.6601906E-05  0.1681467E+04  0.7818609E-02  0.8772006E-01
        1   -1    0    0  501    0  0.00000000000E+00  0.00000000000E+00  0.79249686700E+03  0.79249686702E+03  0.50400001928E-02 0. -1.
       -1   -1    0    0    0  501  0.00000000000E+00  0.00000000000E+00 -0.89190584304E+03  0.89190584306E+03  0.50400001928E-02 0.  1.
    10030    2    1    2    0    0  0.00000000000E+00  0.00000000000E+00 -0.99408976037E+02  0.16844027101E+04  0.16814667244E+04 0.  0.
        1    1    3    3  502    0  0.56438184868E+03 -0.36778744920E+03 -0.55361175278E+03  0.87194062398E+03  0.50400001928E-02 0.  1.
       -1    1    3    3    0  502 -0.56438184868E+03  0.36778744920E+03  0.45420277674E+03  0.81246208609E+03  0.50400001928E-02 0. -1.
</event>
<event>
 5   0  0.6615842E-05  0.1706193E+04  0.7818609E-02  0.8757840E-01
        1   -1    0    0  501    0  0.00000000000E+00  0.00000000000E+00  0.15419453964E+04  0.15419453964E+04  0.50400001928E-02 0. -1.
       -1   -1    0    0    0  501  0.00000000000E+00  0.00000000000E+00 -0.47198426179E+03  0.47198426182E+03  0.50400001928E-02 0.  1.
    10030    2    1    2    0    0  0.00000000000E+00  0.00000000000E+00  0.10699611346E+04  0.20139296582E+04  0.17061933767E+04 0.  0.
        3    1    3    3  502    0 -0.89189083126E+02 -0.13036622366E+03 -0.45457299849E+03  0.48123452285E+03  0.10100000352E+00 0.  1.
       -3    1    3    3    0  502  0.89189083126E+02  0.13036622366E+03  0.15245341331E+04  0.15326951354E+04  0.10100000352E+00 0. -1.
</event>
<event>
 5   0  0.1285639E-04  0.1710283E+04  0.7818609E-02  0.8755521E-01
        2   -1    0    0  501    0  0.00000000000E+00  0.00000000000E+00  0.93371075890E+03  0.93371075891E+03  0.25500000920E-02 0.  1.
       -2   -1    0    0    0  501  0.00000000000E+00  0.00000000000E+00 -0.78318402115E+03  0.78318402115E+03  0.25500000920E-02 0. -1.
    10030    2    1    2    0    0  0.00000000000E+00  0.00000000000E+00  0.15052673775E+03  0.17168947801E+04  0.17102834230E+04 0.  0.
        4    1    3    3  502    0  0.17665549013E+03 -0.52261479919E+03 -0.58066304855E+03  0.80093981008E+03  0.12699999809E+01 0. -1.
       -4    1    3    3    0  502 -0.17665549013E+03  0.52261479919E+03  0.73118978631E+03  0.91595496998E+03  0.12699999809E+01 0.  1.
</event>
<event>
 5   0  0.1255362E-04  0.1661580E+04  0.7818609E-02  0.8783585E-01
        2   -1    0    0  501    0  0.00000000000E+00  0.00000000000E+00  0.14620139264E+04  0.14620139264E+04  0.25500000920E-02 0.  1.
       -2   -1    0    0    0  501  0.00000000000E+00  0.00000000000E+00 -0.47209699632E+03  0.47209699633E+03  0.25500000920E-02 0. -1.
    10030    2    1    2    0    0  0.00000000000E+00  0.00000000000E+00  0.98991693009E+03  0.19341109227E+04  0.16615804323E+04 0.  0.
        1    1    3    3  502    0  0.36207118097E+03 -0.52541339617E+03 -0.12433632059E+03  0.65008791530E+03  0.50400001928E-02 0.  1.
       -1    1    3    3    0  502 -0.36207118097E+03  0.52541339617E+03  0.11142532507E+04  0.12840230074E+04  0.50400001928E-02 0. -1.
</event>
<event>
 5   0  0.4720875E-05  0.1710341E+04  0.7818609E-02  0.8755489E-01
       -4   -1    0    0    0  501  0.00000000000E+00  0.00000000000E+00  0.67896988618E+03  0.67897107393E+03  0.12699999809E+01 0.  1.
        4   -1    0    0  501    0  0.00000000000E+00  0.00000000000E+00 -0.10770941353E+04  0.10770948841E+04  0.12699999809E+01 0. -1.
    10030    2    1    2    0    0  0.00000000000E+00  0.00000000000E+00 -0.39812424917E+03  0.17560659580E+04  0.17103405307E+04 0.  0.
        5    1    3    3  502    0 -0.25334057308E+03 -0.33761800494E+03 -0.96267028255E+03  0.10511534265E+04  0.46999998093E+01 0. -1.
       -5    1    3    3    0  502  0.25334057308E+03  0.33761800494E+03  0.56454603338E+03  0.70491253147E+03  0.46999998093E+01 0.  1.
</event>
<event>
 5   0  0.6539134E-05  0.1699208E+04  0.7818609E-02  0.8761816E-01
       -1   -1    0    0    0  501  0.00000000000E+00  0.00000000000E+00  0.20994368787E+04  0.20994368787E+04  0.50400001928E-02 0. -1.
        1   -1    0    0  501    0  0.00000000000E+00  0.00000000000E+00 -0.34381931745E+03  0.34381931748E+03  0.50400001928E-02 0.  1.
    10030    2    1    2    0    0  0.00000000000E+00  0.00000000000E+00  0.17556175612E+04  0.24432561962E+04  0.16992079975E+04 0.  0.
        2    1    3    3  502    0  0.36715573047E+03  0.37172818284E+02  0.19781781712E+04  0.20123056492E+04  0.25500000920E-02 0. -1.
       -2    1    3    3    0  502 -0.36715573047E+03 -0.37172818284E+02 -0.22256060994E+03  0.43095054698E+03  0.25500000920E-02 0.  1.
</event>
<event>
 5   0  0.4720875E-05  0.1694194E+04  0.7818609E-02  0.8764683E-01
       -3   -1    0    0    0  501  0.00000000000E+00  0.00000000000E+00  0.98099665815E+03  0.98099666335E+03  0.10100000352E+00 0.  1.
        3   -1    0    0  501    0  0.00000000000E+00  0.00000000000E+00 -0.73147337866E+03  0.73147338563E+03  0.10100000352E+00 0. -1.
    10030    2    1    2    0    0  0.00000000000E+00  0.00000000000E+00  0.24952327949E+03  0.17124700490E+04  0.16941935550E+04 0.  0.
        4    1    3    3  502    0  0.73806976016E+03  0.38595960752E+03  0.28089333146E+03  0.87898490661E+03  0.12699999809E+01 0.  1.
       -4    1    3    3    0  502 -0.73806976016E+03 -0.38595960752E+03 -0.31370051962E+02  0.83348514237E+03  0.12699999809E+01 0. -1.
</event>
<event>
 5   0  0.1285639E-04  0.1698396E+04  0.7818609E-02  0.8762280E-01
        2   -1    0    0  501    0  0.00000000000E+00  0.00000000000E+00  0.25321156313E+04  0.25321156313E+04  0.25500000920E-02 0. -1.
       -2   -1    0    0    0  501  0.00000000000E+00  0.00000000000E+00 -0.28479640552E+03  0.28479640554E+03  0.25500000920E-02 0.  1.
    10030    2    1    2    0    0  0.00000000000E+00  0.00000000000E+00  0.22473192257E+04  0.28169120368E+04  0.16983962202E+04 0.  0.
        4    1    3    3  502    0  0.62473953446E+03  0.38971027258E+03  0.42201859786E+03  0.84869010381E+03  0.12699999809E+01 0.  1.
       -4    1    3    3    0  502 -0.62473953446E+03 -0.38971027258E+03  0.18253006279E+04  0.19682219330E+04  0.12699999809E+01 0. -1.
</event>
<event>
 5   0  0.6615842E-05  0.1700580E+04  0.7818609E-02  0.8761034E-01
        1   -1    0    0  501    0  0.00000000000E+00  0.00000000000E+00  0.10077233840E+04  0.10077233840E+04  0.50400001928E-02 0. -1.
       -1   -1    0    0    0  501  0.00000000000E+00  0.00000000000E+00 -0.71745165351E+03  0.71745165352E+03  0.50400001928E-02 0.  1.
    10030    2    1    2    0    0  0.00000000000E+00  0.00000000000E+00  0.29027173048E+03  0.17251750375E+04  0.17005796755E+04 0.  0.
        3    1    3    3  502    0 -0.55101089895E+03  0.15471741727E+02  0.80190986150E+03  0.97309394291E+03  0.10100000352E+00 0. -1.
       -3    1    3    3    0  502  0.55101089895E+03 -0.15471741727E+02 -0.51163813102E+03  0.75208109461E+03  0.10100000352E+00 0.  1.
</event>
<event>
 5   0  0.1285639E-04  0.1695559E+04  0.7818609E-02  0.8763901E-01
        2   -1    0    0  501    0  0.00000000000E+00  0.00000000000E+00  0.80949739548E+03  0.80949739549E+03  0.25500000920E-02 0.  1.
       -2   -1    0    0    0  501  0.00000000000E+00  0.00000000000E+00 -0.88787235168E+03  0.88787235168E+03  0.25500000920E-02 0. -1.
    10030    2    1    2    0    0  0.00000000000E+00  0.00000000000E+00 -0.78374956198E+02  0.16973697472E+04  0.16955593251E+04 0.  0.
        4    1    3    3  502    0  0.72392883854E+03 -0.29729516708E+03  0.28715348761E+03  0.83361628942E+03  0.12699999809E+01 0.  1.
       -4    1    3    3    0  502 -0.72392883854E+03  0.29729516708E+03 -0.36552844381E+03  0.86375345775E+03  0.12699999809E+01 0. -1.
</event>
<event>
 5   0  0.6615842E-05  0.1702408E+04  0.7818609E-02  0.8759992E-01
        1   -1    0    0  501    0  0.00000000000E+00  0.00000000000E+00  0.68273359305E+03  0.68273359307E+03  0.50400001928E-02 0.  1.
       -1   -1    0    0    0  501  0.00000000000E+00  0.00000000000E+00 -0.10612458206E+04  0.10612458206E+04  0.50400001928E-02 0. -1.
    10030    2    1    2    0    0  0.00000000000E+00  0.00000000000E+00 -0.37851222758E+03  0.17439794137E+04  0.17024079091E+04 0.  0.
        3    1    3    3  502    0 -0.67823394154E+03 -0.48357695996E+03 -0.97627595278E+01  0.83303257879E+03  0.10100000352E+00 0. -1.
       -3    1    3    3    0  502  0.67823394154E+03  0.48357695996E+03 -0.36874946805E+03  0.91094683492E+03  0.10100000352E+00 0.  1.
</event>
<event>
 5   0  0.6615842E-05  0.1703447E+04  0.7818609E-02  0.8759401E-01
        1   -1    0    0  501    0  0.00000000000E+00  0.00000000000E+00  0.99838856951E+03  0.99838856952E+03  0.50400001928E-02 0. -1.
       -1   -1    0    0    0  501  0.00000000000E+00  0.00000000000E+00 -0.72660345674E+03  0.72660345676E+03  0.50400001928E-02 0.  1.
    10030    2    1    2    0    0  0.00000000000E+00  0.00000000000E+00  0.27178511277E+03  0.17249920263E+04  0.17034466071E+04 0.  0.
        3    1    3    3  502    0  0.71527020698E+03 -0.19109862361E+03  0.56229128516E+03  0.92967825214E+03  0.10100000352E+00 0. -1.
       -3    1    3    3    0  502 -0.71527020698E+03  0.19109862361E+03 -0.29050617239E+03  0.79531377414E+03  0.10100000352E+00 0.  1.
</event>
<event>
 5   0  0.1285639E-04  0.1699017E+04  0.7818609E-02  0.8761925E-01
       -2   -1    0    0    0  501  0.00000000000E+00  0.00000000000E+00  0.82036148489E+03  0.82036148489E+03  0.25500000920E-02 0. -1.
        2   -1    0    0  501    0  0.00000000000E+00  0.00000000000E+00 -0.87969069982E+03  0.87969069983E+03  0.25500000920E-02 0.  1.
    10030    2    1    2    0    0  0.00000000000E+00  0.00000000000E+00 -0.59329214935E+02  0.17000521847E+04  0.16990166200E+04 0.  0.
        4    1    3    3  502    0 -0.40808038988E+03 -0.27003141178E+03  0.66517652299E+03  0.82577720215E+03  0.12699999809E+01 0. -1.
       -4    1    3    3    0  502  0.40808038988E+03  0.27003141178E+03 -0.72450573793E+03  0.87427498257E+03  0.12699999809E+01 0.  1.
</event>
<event>
 5   0  0.1255362E-04  0.1699799E+04  0.7818609E-02  0.8761479E-01
       -2   -1    0    0    0  501  0.00000000000E+00  0.00000000000E+00  0.67038352742E+03  0.67038352742E+03  0.25500000920E-02 0. -1.
        2   -1    0    0  501    0  0.00000000000E+00  0.00000000000E+00 -0.10774869764E+04  0.10774869764E+04  0.25500000920E-02 0.  1.
    10030    2    1    2    0    0  0.00000000000E+00  0.00000000000E+00 -0.40710344894E+03  0.17478705038E+04  0.16997994234E+04 0.  0.
        1    1    3    3  502    0 -0.63449962216E+02 -0.28303550458E+03  0.61791147637E+03  0.68260500087E+03  0.50400001928E-02 0. -1.
       -1    1    3    3    0  502  0.63449962216E+02  0.28303550458E+03 -0.10250149253E+04  0.10652655029E+04  0.50400001928E-02 0.  1.
</event>
<event>
 5   0  0.1269175E-04  0.1702539E+04  0.7818609E-02  0.8759918E-01
        2   -1    0    0  501    0  0.00000000000E+00  0.00000000000E+00  0.17528889940E+04  0.17528889940E+04  0.25500000920E-02 0. -1.
       -2   -1    0    0    0  501  0.00000000000E+00  0.00000000000E+00 -0.41340885998E+03  0.41340885999E+03  0.25500000920E-02 0.  1.
    10030    2    1    2    0    0  0.00000000000E+00  0.00000000000E+00  0.13394801340E+04  0.21662978540E+04  0.17025390929E+04 0.  0.
        2    1    3    3  502    0 -0.36190086340E+03 -0.22138057875E+02  0.16497280206E+04  0.16891017940E+04  0.25500000920E-02 0. -1.
       -2    1    3    3    0  502  0.36190086340E+03  0.22138057875E+02 -0.31024788658E+03  0.47719605999E+03  0.25500000920E-02 0.  1.
</event>
<event>
 5   0  0.1285639E-04  0.1698395E+04  0.7818609E-02  0.8762280E-01
        2   -1    0    0  501    0  0.00000000000E+00  0.00000000000E+00  0.11145883482E+04  0.11145883482E+04  0.25500000920E-02 0.  1.
       -2   -1    0    0    0  501  0.00000000000E+00  0.00000000000E+00 -0.64699777971E+03  0.64699777971E+03  0.25500000920E-02 0. -1.
    10030    2    1    2    0    0  0.00000000000E+00  0.00000000000E+00  0.46759056852E+03  0.17615861279E+04  0.16983947558E+04 0.  0.
        4    1    3    3  502    0  0.15815483934E+03  0.97097132555E+02  0.10932970917E+04  0.11089368558E+04  0.12699999809E+01 0.  1.
       -4    1    3    3    0  502 -0.15815483934E+03 -0.97097132555E+02 -0.62570652323E+03  0.65264927217E+03  0.12699999809E+01 0. -1.
</event>
<event>
 5   0  0.6601906E-05  0.1694671E+04  0.7818609E-02  0.8764409E-01
        1   -1    0    0  501    0  0.00000000000E+00  0.00000000000E+00  0.32061195083E+04  0.32061195083E+04  0.50400001928E-02 0. -1.
       -1   -1    0    0    0  501  0.00000000000E+00  0.00000000000E+00 -0.22393972515E+03  0.22393972521E+03  0.50400001928E-02 0.  1.
    10030    2    1    2    0    0  0.00000000000E+00  0.00000000000E+00  0.29821797832E+04  0.34300592335E+04  0.16946710850E+04 0.  0.
        1    1    3    3  502    0  0.58606896748E+03  0.43351039521E+03  0.23653414920E+04  0.24751259506E+04  0.50400001928E-02 0. -1.
       -1    1    3    3    0  502 -0.58606896748E+03 -0.43351039521E+03  0.61683829112E+03  0.95493328291E+03  0.50400001928E-02 0.  1.
</event>
<event>
 5   0  0.6615842E-05  0.1696009E+04  0.7818609E-02  0.8763644E-01
        1   -1    0    0  501    0  0.00000000000E+00  0.00000000000E+00  0.11377320517E+04  0.11377320517E+04  0.50400001928E-02 0. -1.
       -1   -1    0    0    0  501  0.00000000000E+00  0.00000000000E+00 -0.63205691631E+03  0.63205691633E+03  0.50400001928E-02 0.  1.
    10030    2    1    2    0    0  0.00000000000E+00  0.00000000000E+00  0.50567513542E+03  0.17697889681E+04  0.16960087408E+04 0.  0.
        3    1    3    3  502    0  0.17958216287E+03 -0.30558870725E+03  0.10567253230E+04  0.11145863043E+04  0.10100000352E+00 0. -1.
       -3    1    3    3    0  502 -0.17958216287E+03  0.30558870725E+03 -0.55105018758E+03  0.65520266380E+03  0.10100000352E+00 0.  1.
</event>
<event>
 5   0  0.1269175E-04  0.1691892E+04  0.7818609E-02  0.8766002E-01
       -2   -1    0    0    0  501  0.00000000000E+00  0.00000000000E+00  0.71277237672E+03  0.71277237673E+03  0.25500000920E-02 0.  1.
        2   -1    0    0  501    0  0.00000000000E+00  0.00000000000E+00 -0.10040019177E+04  0.10040019177E+04  0.25500000920E-02 0. -1.
    10030    2    1    2    0    0  0.00000000000E+00  0.00000000000E+00 -0.29122954097E+03  0.17167742944E+04  0.16918922343E+04 0.  0.
        2    1    3    3  502    0 -0.42137239320E+03  0.72148963808E+03 -0.11294124701E+02  0.83560130976E+03  0.25500000920E-02 0. -1.
       -2    1    3    3    0  502  0.42137239320E+03 -0.72148963808E+03 -0.27993541627E+03  0.88117298466E+03  0.25500000920E-02 0.  1.
</event>
<event>
 5   0  0.6539134E-05  0.1700667E+04  0.7818609E-02  0.8760984E-01
        1   -1    0    0  501    0  0.00000000000E+00  0.00000000000E+00  0.80694983060E+03  0.80694983061E+03  0.50400001928E-02 0.  1.
       -1   -1    0    0    0  501  0.00000000000E+00  0.00000000000E+00 -0.89604939453E+03  0.89604939454E+03  0.50400001928E-02 0. -1.
    10030    2    1    2    0    0  0.00000000000E+00  0.00000000000E+00 -0.89099563935E+02  0.17029992252E+04  0.17006668188E+04 0.  0.
        2    1    3    3  502    0 -0.33558334629E+03  0.77424820272E+03  0.60429321358E+02  0.84600718945E+03  0.25500000920E-02 0.  1.
       -2    1    3    3    0  502  0.33558334629E+03 -0.77424820272E+03 -0.14952888529E+03  0.85699203570E+03  0.25500000920E-02 0. -1.
</event>
<event>
 5   0  0.6564887E-05  0.1694368E+04  0.7818609E-02  0.8764583E-01
        1   -1    0    0  501    0  0.00000000000E+00  0.00000000000E+00  0.19843804629E+04  0.19843804629E+04  0.50400001928E-02 0.  1.
       -1   -1    0    0    0  501  0.00000000000E+00  0.00000000000E+00 -0.36168520849E+03  0.36168520852E+03  0.50400001928E-02 0. -1.
    10030    2    1    2    0    0  0.00000000000E+00  0.00000000000E+00  0.16226952544E+04  0.23460656714E+04  0.16943683915E+04 0.  0.
        4    1    3    3  502    0 -0.63073223340E+03  0.54963559320E+03  0.99606420890E+03  0.13007951248E+04  0.12699999809E+01 0.  1.
       -4    1    3    3    0  502  0.63073223340E+03 -0.54963559320E+03  0.62663104553E+03  0.10452705466E+04  0.12699999809E+01 0. -1.
</event>
<event>
 5   0  0.6564887E-05  0.1699110E+04  0.7818609E-02  0.8761872E-01
       -1   -1    0    0    0  501  0.00000000000E+00  0.00000000000E+00  0.66524123539E+03  0.66524123541E+03  0.50400001928E-02 0. -1.
        1   -1    0    0  501    0  0.00000000000E+00  0.00000000000E+00 -0.10849349304E+04  0.10849349304E+04  0.50400001928E-02 0.  1.
    10030    2    1    2    0    0  0.00000000000E+00  0.00000000000E+00 -0.41969369503E+03  0.17501761658E+04  0.16991097121E+04 0.  0.
        4    1    3    3  502    0  0.36784173205E+03  0.53195297091E+03  0.35758186940E+03  0.73901820635E+03  0.12699999809E+01 0. -1.
       -4    1    3    3    0  502 -0.36784173205E+03 -0.53195297091E+03 -0.77727556443E+03  0.10111579595E+04  0.12699999809E+01 0.  1.
</event>
<event>
 5   0  0.1269175E-04  0.1697330E+04  0.7818609E-02  0.8762888E-01
        2   -1    0    0  501    0  0.00000000000E+00  0.00000000000E+00  0.76045469185E+03  0.76045469185E+03  0.25500000920E-02 0. -1.
       -2   -1    0    0    0  501  0.00000000000E+00  0.00000000000E+00 -0.94710782167E+03  0.94710782167E+03  0.25500000920E-02 0.  1.
    10030    2    1    2    0    0  0.00000000000E+00  0.00000000000E+00 -0.18665312982E+03  0.17075625135E+04  0.16973303587E+04 0.  0.
        2    1    3    3  502    0  0.64181979886E+03 -0.18446982061E+03  0.43353926558E+03  0.79618971591E+03  0.25500000920E-02 0. -1.
       -2    1    3    3    0  502 -0.64181979886E+03  0.18446982061E+03 -0.62019239539E+03  0.91137279761E+03  0.25500000920E-02 0.  1.
</event>
<event>
 5   0  0.6601906E-05  0.1702682E+04  0.7818609E-02  0.8759836E-01
       -1   -1    0    0    0  501  0.00000000000E+00  0.00000000000E+00  0.33446334992E+03  0.33446334996E+03  0.50400001928E-02 0. -1.
        1   -1    0    0  501    0  0.00000000000E+00  0.00000000000E+00 -0.21669970771E+04  0.21669970771E+04  0.50400001928E-02 0.  1.
    10030    2    1    2    0    0  0.00000000000E+00  0.00000000000E+00 -0.18325337272E+04  0.25014604271E+04  0.17026815342E+04 0.  0.
        1    1    3    3  502    0  0.24986211697E+03  0.44482748598E+03  0.84984299529E+02  0.51722809376E+03  0.50400001928E-02 0. -1.
       -1    1    3    3    0  502 -0.24986211697E+03 -0.44482748598E+03 -0.19175180267E+04  0.19842323333E+04  0.50400001928E-02 0.  1.
</event>
<event>
 5   0  0.1269175E-04  0.1700162E+04  0.7818609E-02  0.8761272E-01
        2   -1    0    0  501    0  0.00000000000E+00  0.00000000000E+00  0.87784130257E+03  0.87784130257E+03  0.25500000920E-02 0. -1.
       -2   -1    0    0    0  501  0.00000000000E+00  0.00000000000E+00 -0.82319823897E+03  0.82319823897E+03  0.25500000920E-02 0.  1.
    10030    2    1    2    0    0  0.00000000000E+00  0.00000000000E+00  0.54643063601E+02  0.17010395415E+04  0.17001616563E+04 0.  0.
        2    1    3    3  502    0 -0.44133027224E+03  0.59629248587E+03 -0.38798348656E+03  0.83717878840E+03  0.25500000920E-02 0.  1.
       -2    1    3    3    0  502  0.44133027224E+03 -0.59629248587E+03  0.44262655016E+03  0.86386075314E+03  0.25500000920E-02 0. -1.
</event>
<event>
 5   0  0.1269175E-04  0.1696308E+04  0.7818609E-02  0.8763473E-01
       -2   -1    0    0    0  501  0.00000000000E+00  0.00000000000E+00  0.10274274388E+04  0.10274274388E+04  0.25500000920E-02 0. -1.
        2   -1    0    0  501    0  0.00000000000E+00  0.00000000000E+00 -0.70016149117E+03  0.70016149117E+03  0.25500000920E-02 0.  1.
    10030    2    1    2    0    0  0.00000000000E+00  0.00000000000E+00  0.32726594761E+03  0.17275889300E+04  0.16963079056E+04 0.  0.
        2    1    3    3  502    0  0.90052933775E+02  0.45680771514E+03 -0.55837056243E+03  0.72702166714E+03  0.25500000920E-02 0.  1.
       -2    1    3    3    0  502 -0.90052933775E+02 -0.45680771514E+03  0.88563651005E+03  0.10005672628E+04  0.25500000920E-02 0. -1.
</event>
<event>
 5   0  0.1269175E-04  0.1717813E+04  0.7818609E-02  0.8751270E-01
       -2   -1    0    0    0  501  0.00000000000E+00  0.00000000000E+00  0.13462903763E+04  0.13462903763E+04  0.25500000920E-02 0.  1.
        2   -1    0    0  501    0  0.00000000000E+00  0.00000000000E+00 -0.54796509181E+03  0.54796509182E+03  0.25500000920E-02 0. -1.
    10030    2    1    2    0    0  0.00000000000E+00  0.00000000000E+00  0.79832528448E+03  0.18942554681E+04  0.17178127135E+04 0.  0.
        2    1    3    3  502    0  0.39899244588E+03 -0.23011273719E+03 -0.40026539994E+03  0.61021244996E+03  0.25500000920E-02 0. -1.
       -2    1    3    3    0  502 -0.39899244588E+03  0.23011273719E+03  0.11985906844E+04  0.12840430182E+04  0.25500000920E-02 0.  1.
</event>
<event>
 5   0  0.1255362E-04  0.1700596E+04  0.7818609E-02  0.8761024E-01
       -2   -1    0    0    0  501  0.00000000000E+00  0.00000000000E+00  0.69796091514E+03  0.69796091515E+03  0.25500000920E-02 0.  1.
        2   -1    0    0  501    0  0.00000000000E+00  0.00000000000E+00 -0.10358845849E+04  0.10358845849E+04  0.25500000920E-02 0. -1.
    10030    2    1    2    0    0  0.00000000000E+00  0.00000000000E+00 -0.33792366971E+03  0.17338455000E+04  0.17005963105E+04 0.  0.
        1    1    3    3  502    0  0.39194165458E+03 -0.51596048541E+03  0.39241535235E+03  0.75751124869E+03  0.50400001928E-02 0.  1.
       -1    1    3    3    0  502 -0.39194165458E+03  0.51596048541E+03 -0.73033902206E+03  0.97633425131E+03  0.50400001928E-02 0. -1.
</event>
<event>
 5   0  0.6539134E-05  0.1709822E+04  0.7818609E-02  0.8755782E-01
        1   -1    0    0  501    0  0.00000000000E+00  0.00000000000E+00  0.76711129693E+03  0.76711129695E+03  0.50400001928E-02 0. -1.
       -1   -1    0    0    0  501  0.00000000000E+00  0.00000000000E+00 -0.95275982981E+03  0.95275982982E+03  0.50400001928E-02 0.  1.
    10030    2    1    2    0    0  0.00000000000E+00  0.00000000000E+00 -0.18564853288E+03  0.17198711268E+04  0.17098220126E+04 0.  0.
        2    1    3    3  502    0 -0.69210080222E+03 -0.96355317759E+02  0.40259961594E+03  0.80645788387E+03  0.25500000920E-02 0. -1.
       -2    1    3    3    0  502  0.69210080222E+03  0.96355317759E+02 -0.58824814882E+03  0.91341324289E+03  0.25500000920E-02 0.  1.
</event>
<event>
 5   0  0.1285639E-04  0.1699825E+04  0.7818609E-02  0.8761464E-01
       -2   -1    0    0    0  501  0.00000000000E+00  0.00000000000E+00  0.12278675189E+04  0.12278675189E+04  0.25500000920E-02 0.  1.
        2   -1    0    0  501    0  0.00000000000E+00  0.00000000000E+00 -0.58829746769E+03  0.58829746769E+03  0.25500000920E-02 0. -1.
    10030    2    1    2    0    0  0.00000000000E+00  0.00000000000E+00  0.63957005121E+03  0.18161649866E+04  0.16998251110E+04 0.  0.
        4    1    3    3  502    0 -0.28646315867E+03  0.23090309790E+03  0.11383626755E+04  0.11963480162E+04  0.12699999809E+01 0.  1.
       -4    1    3    3    0  502  0.28646315867E+03 -0.23090309790E+03 -0.49879262429E+03  0.61981697044E+03  0.12699999809E+01 0. -1.
</event>
<event>
 5   0  0.1333546E-04  0.1717025E+04  0.7818609E-02  0.8751714E-01
       -2   -1    0    0    0  501  0.00000000000E+00  0.00000000000E+00  0.47892124534E+03  0.47892124535E+03  0.25500000920E-02 0. -1.
        2   -1    0    0  501    0  0.00000000000E+00  0.00000000000E+00 -0.15389662220E+04  0.15389662220E+04  0.25500000920E-02 0.  1.
    10030    2    1    2    0    0  0.00000000000E+00  0.00000000000E+00 -0.10600449766E+04  0.20178874673E+04  0.17170248916E+04 0.  0.
        5    1    3    3  502    0  0.73955743670E+02 -0.44138629201E+02 -0.15338611385E+04  0.15362843985E+04  0.46999998093E+01 0.  1.
       -5    1    3    3    0  502 -0.73955743670E+02  0.44138629201E+02  0.47381616194E+03  0.48160306885E+03  0.46999998093E+01 0. -1.
</event>
<event>
 5   0  0.6615842E-05  0.1703061E+04  0.7818609E-02  0.8759621E-01
       -1   -1    0    0    0  501  0.00000000000E+00  0.00000000000E+00  0.10319171520E+04  0.10319171520E+04  0.50400001928E-02 0. -1.
        1   -1    0    0  501    0  0.00000000000E+00  0.00000000000E+00 -0.70267644239E+03  0.70267644241E+03  0.50400001928E-02 0.  1.
    10030    2    1    2    0    0  0.00000000000E+00  0.00000000000E+00  0.32924070964E+03  0.17345935944E+04  0.17030606252E+04 0.  0.
        3    1    3    3  502    0  0.74422660627E+03  0.40477426413E+03  0.25216776834E+03  0.88391404558E+03  0.10100000352E+00 0. -1.
       -3    1    3    3    0  502 -0.74422660627E+03 -0.40477426413E+03  0.77072941303E+02  0.85067954887E+03  0.10100000352E+00 0.  1.
</event>
<event>
 5   0  0.1333546E-04  0.1672618E+04  0.7818609E-02  0.8777137E-01
       -2   -1    0    0    0  501  0.00000000000E+00  0.00000000000E+00  0.61994502129E+03  0.61994502130E+03  0.25500000920E-02 0. -1.
        2   -1    0    0  501    0  0.00000000000E+00  0.00000000000E+00 -0.11281846004E+04  0.11281846004E+04  0.25500000920E-02 0.  1.
    10030    2    1    2    0    0  0.00000000000E+00  0.00000000000E+00 -0.50823957915E+03  0.17481296217E+04  0.16726176206E+04 0.  0.
        5    1    3    3  502    0 -0.21459087095E+03  0.20407658163E+03  0.56329787536E+03  0.63641423573E+03  0.46999998093E+01 0. -1.
       -5    1    3    3    0  502  0.21459087095E+03 -0.20407658163E+03 -0.10715374545E+04  0.11117153860E+04  0.46999998093E+01 0.  1.
</event>
<event>
 5   0  0.6834837E-05  0.1699954E+04  0.7818609E-02  0.8761391E-01
        1   -1    0    0  501    0  0.00000000000E+00  0.00000000000E+00  0.14779707406E+04  0.14779707406E+04  0.50400001928E-02 0. -1.
       -1   -1    0    0    0  501  0.00000000000E+00  0.00000000000E+00 -0.48881928899E+03  0.48881928902E+03  0.50400001928E-02 0.  1.
    10030    2    1    2    0    0  0.00000000000E+00  0.00000000000E+00  0.98915145162E+03  0.19667900296E+04  0.16999536542E+04 0.  0.
        5    1    3    3  502    0  0.84011028533E+02 -0.21212571066E+01 -0.48398582897E+03  0.49125016569E+03  0.46999998093E+01 0.  1.
       -5    1    3    3    0  502 -0.84011028533E+02  0.21212571066E+01  0.14731372806E+04  0.14755398639E+04  0.46999998093E+01 0. -1.
</event>
<event>
 5   0  0.1333546E-04  0.1715065E+04  0.7818609E-02  0.8752818E-01
        2   -1    0    0  501    0  0.00000000000E+00  0.00000000000E+00  0.66900677904E+03  0.66900677905E+03  0.25500000920E-02 0. -1.
       -2   -1    0    0    0  501  0.00000000000E+00  0.00000000000E+00 -0.10991852821E+04  0.10991852821E+04  0.25500000920E-02 0.  1.
    10030    2    1    2    0    0  0.00000000000E+00  0.00000000000E+00 -0.43017850309E+03  0.17681920612E+04  0.17150654858E+04 0.  0.
        5    1    3    3  502    0  0.83111686153E+03  0.27554502974E+02  0.74173172752E+00  0.83158711409E+03  0.46999998093E+01 0. -1.
       -5    1    3    3    0  502 -0.83111686153E+03 -0.27554502974E+02 -0.43092023482E+03  0.93660494710E+03  0.46999998093E+01 0.  1.
</event>
<event>
 5   0  0.1269175E-04  0.1699318E+04  0.7818609E-02  0.8761753E-01
       -2   -1    0    0    0  501  0.00000000000E+00  0.00000000000E+00  0.63050381937E+03  0.63050381937E+03  0.25500000920E-02 0. -1.
        2   -1    0    0  501    0  0.00000000000E+00  0.00000000000E+00 -0.11449900077E+04  0.11449900077E+04  0.25500000920E-02 0.  1.
    10030    2    1    2    0    0  0.00000000000E+00  0.00000000000E+00 -0.51448618832E+03  0.17754938271E+04  0.16993181844E+04 0.  0.
        2    1    3    3  502    0 -0.13135306656E+03 -0.75366079713E+03 -0.64349345711E+03  0.99967097316E+03  0.25500000920E-02 0. -1.
       -2    1    3    3    0  502  0.13135306656E+03  0.75366079713E+03  0.12900726879E+03  0.77582285390E+03  0.25500000920E-02 0.  1.
</event>
<event>
 5   0  0.6601906E-05  0.1684412E+04  0.7818609E-02  0.8770305E-01
        1   -1    0    0  501    0  0.00000000000E+00  0.00000000000E+00  0.36110082294E+03  0.36110082298E+03  0.50400001928E-02 0.  1.
       -1   -1    0    0    0  501  0.00000000000E+00  0.00000000000E+00 -0.19643012459E+04  0.19643012459E+04  0.50400001928E-02 0. -1.
    10030    2    1    2    0    0  0.00000000000E+00  0.00000000000E+00 -0.16032004230E+04  0.23254020689E+04  0.16844118219E+04 0.  0.
        1    1    3    3  502    0 -0.84094729990E+02  0.80168681953E+03 -0.46474468939E+03  0.93046295282E+03  0.50400001928E-02 0.  1.
       -1    1    3    3    0  502  0.84094729990E+02 -0.80168681953E+03 -0.11384557336E+04  0.13949391161E+04  0.50400001928E-02 0. -1.
</event>
<event>
 5   0  0.6615842E-05  0.1706817E+04  0.7818609E-02  0.8757486E-01
       -1   -1    0    0    0  501  0.00000000000E+00  0.00000000000E+00  0.10826467754E+04  0.10826467754E+04  0.50400001928E-02 0.  1.
        1   -1    0    0  501    0  0.00000000000E+00  0.00000000000E+00 -0.67270896891E+03  0.67270896893E+03  0.50400001928E-02 0. -1.
    10030    2    1    2    0    0  0.00000000000E+00  0.00000000000E+00  0.40993780647E+03  0.17553557443E+04  0.17068171501E+04 0.  0.
        3    1    3    3  502    0 -0.23416776465E+02  0.77013322533E+03  0.58235474972E+03  0.96581084840E+03  0.10100000352E+00 0.  1.
       -3    1    3    3    0  502  0.23416776465E+02 -0.77013322533E+03 -0.17241694324E+03  0.78954489593E+03  0.10100000352E+00 0. -1.
</event>
<event>
 5   0  0.1285639E-04  0.1700095E+04  0.7818609E-02  0.8761310E-01
       -2   -1    0    0    0  501  0.00000000000E+00  0.00000000000E+00  0.40666750849E+03  0.40666750850E+03  0.25500000920E-02 0. -1.
        2   -1    0    0  501    0  0.00000000000E+00  0.00000000000E+00 -0.17768340710E+04  0.17768340710E+04  0.25500000920E-02 0.  1.
    10030    2    1    2    0    0  0.00000000000E+00  0.00000000000E+00 -0.13701665625E+04  0.21835015795E+04  0.17000949205E+04 0.  0.
        4    1    3    3  502    0 -0.36967601013E+03 -0.80564188320E+02 -0.16627259067E+04  0.17052301882E+04  0.12699999809E+01 0.  1.
       -4    1    3    3    0  502  0.36967601013E+03  0.80564188320E+02  0.29255934425E+03  0.47827139128E+03  0.12699999809E+01 0. -1.
</event>
<event>
 5   0  0.1285639E-04  0.1698331E+04  0.7818609E-02  0.8762317E-01
        2   -1    0    0  501    0  0.00000000000E+00  0.00000000000E+00  0.16682716181E+04  0.16682716181E+04  0.25500000920E-02 0.  1.
       -2   -1    0    0    0  501  0.00000000000E+00  0.00000000000E+00 -0.43223285720E+03  0.43223285721E+03  0.25500000920E-02 0. -1.
    10030    2    1    2    0    0  0.00000000000E+00  0.00000000000E+00  0.12360387609E+04  0.21005044753E+04  0.16983307194E+04 0.  0.
        4    1    3    3  502    0 -0.59063217703E+03  0.26188249277E+03  0.12995556619E+04  0.14513012574E+04  0.12699999809E+01 0.  1.
       -4    1    3    3    0  502  0.59063217703E+03 -0.26188249277E+03 -0.63516900954E+02  0.64920321792E+03  0.12699999809E+01 0. -1.
</event>
<event>
 5   0  0.1255362E-04  0.1703215E+04  0.7818609E-02  0.8759533E-01
        2   -1    0    0  501    0  0.00000000000E+00  0.00000000000E+00  0.14032699196E+04  0.14032699196E+04  0.25500000920E-02 0. -1.
       -2   -1    0    0    0  501  0.00000000000E+00  0.00000000000E+00 -0.51681821443E+03  0.51681821443E+03  0.25500000920E-02 0.  1.
    10030    2    1    2    0    0  0.00000000000E+00  0.00000000000E+00  0.88645170516E+03  0.19200881340E+04  0.17032151411E+04 0.  0.
        1    1    3    3  502    0 -0.26852942743E+02  0.61041506659E+03 -0.22552771748E+03  0.65129899849E+03  0.50400001928E-02 0.  1.
       -1    1    3    3    0  502  0.26852942743E+02 -0.61041506659E+03  0.11119794226E+04  0.12687891355E+04  0.50400001928E-02 0. -1.
</event>
<event>
 5   0  0.4720875E-05  0.1693785E+04  0.7818609E-02  0.8764917E-01
       -4   -1    0    0    0  501  0.00000000000E+00  0.00000000000E+00  0.68286875795E+03  0.68286993893E+03  0.12699999809E+01 0. -1.
        4   -1    0    0  501    0  0.00000000000E+00  0.00000000000E+00 -0.10503117583E+04  0.10503125261E+04  0.12699999809E+01 0.  1.
    10030    2    1    2    0    0  0.00000000000E+00  0.00000000000E+00 -0.36744300031E+03  0.17331824650E+04  0.16937848442E+04 0.  0.
        4    1    3    3  502    0 -0.50239488146E+03 -0.73667955104E+02  0.50983268095E+03  0.71955441767E+03  0.12699999809E+01 0. -1.
       -4    1    3    3    0  502  0.50239488146E+03  0.73667955104E+02 -0.87727568126E+03  0.10136280473E+04  0.12699999809E+01 0.  1.
</event>
<event>
 5   0  0.6615842E-05  0.1713757E+04  0.7818609E-02  0.8753557E-01
        1   -1    0    0  501    0  0.00000000000E+00  0.00000000000E+00  0.10954865503E+04  0.10954865503E+04  0.50400001928E-02 0. -1.
       -1   -1    0    0    0  501  0.00000000000E+00  0.00000000000E+00 -0.67024190281E+03  0.67024190283E+03  0.50400001928E-02 0.  1.
    10030    2    1    2    0    0  0.00000000000E+00  0.00000000000E+00  0.42524464752E+03  0.17657284532E+04  0.17137572641E+04 0.  0.
        3    1    3    3  502    0 -0.66239931713E+03  0.54260635116E+03  0.24595256448E+03  0.89089122895E+03  0.10100000352E+00 0.  1.
       -3    1    3    3    0  502  0.66239931713E+03 -0.54260635116E+03  0.17929208304E+03  0.87483722423E+03  0.10100000352E+00 0. -1.
</event>
<event>
 5   0  0.6601906E-05  0.1697723E+04  0.7818609E-02  0.8762664E-01
        1   -1    0    0  501    0  0.00000000000E+00  0.00000000000E+00  0.77387793175E+03  0.77387793176E+03  0.50400001928E-02 0. -1.
       -1   -1    0    0    0  501  0.00000000000E+00  0.00000000000E+00 -0.93111062076E+03  0.93111062077E+03  0.50400001928E-02 0.  1.
    10030    2    1    2    0    0  0.00000000000E+00  0.00000000000E+00 -0.15723268901E+03  0.17049885525E+04  0.16977231358E+04 0.  0.
        1    1    3    3  502    0 -0.22869827357E+03  0.26899742616E+03 -0.85386772587E+03  0.92398734240E+03  0.50400001928E-02 0.  1.
       -1    1    3    3    0  502  0.22869827357E+03 -0.26899742616E+03  0.69663503686E+03  0.78100121013E+03  0.50400001928E-02 0. -1.
</event>
<event>
 5   0  0.1269175E-04  0.1701458E+04  0.7818609E-02  0.8760533E-01
       -2   -1    0    0    0  501  0.00000000000E+00  0.00000000000E+00  0.35079021630E+03  0.35079021631E+03  0.25500000920E-02 0. -1.
        2   -1    0    0  501    0  0.00000000000E+00  0.00000000000E+00 -0.20631709989E+04  0.20631709989E+04  0.25500000920E-02 0.  1.
    10030    2    1    2    0    0  0.00000000000E+00  0.00000000000E+00 -0.17123807826E+04  0.24139612152E+04  0.17014584344E+04 0.  0.
        2    1    3    3  502    0  0.13723804056E+03 -0.83958569870E+03 -0.85429979327E+03  0.12056394826E+04  0.25500000920E-02 0.  1.
       -2    1    3    3    0  502 -0.13723804056E+03  0.83958569870E+03 -0.85808098936E+03  0.12083217326E+04  0.25500000920E-02 0. -1.
</event>
<event>
 5   0  0.6834837E-05  0.1701634E+04  0.7818609E-02  0.8760433E-01
       -1   -1    0    0    0  501  0.00000000000E+00  0.00000000000E+00  0.48526068515E+03  0.48526068517E+03  0.50400001928E-02 0.  1.
        1   -1    0    0  501    0  0.00000000000E+00  0.00000000000E+00 -0.14917534714E+04  0.14917534714E+04  0.50400001928E-02 0. -1.
    10030    2    1    2    0    0  0.00000000000E+00  0.00000000000E+00 -0.10064927863E+04  0.19770141566E+04  0.17016336993E+04 0.  0.
        5    1    3    3  502    0 -0.14220275889E+03  0.22881082533E+03 -0.14408759897E+04  0.14658518773E+04  0.46999998093E+01 0. -1.
       -5    1    3    3    0  502  0.14220275889E+03 -0.22881082533E+03  0.43438320341E+03  0.51116227935E+03  0.46999998093E+01 0.  1.
</event>
<event>
 5   0  0.6615842E-05  0.1699646E+04  0.7818609E-02  0.8761566E-01
       -1   -1    0    0    0  501  0.00000000000E+00  0.00000000000E+00  0.13622859489E+04  0.13622859489E+04  0.50400001928E-02 0.  1.
        1   -1    0    0  501    0  0.00000000000E+00  0.00000000000E+00 -0.53013768682E+03  0.53013768684E+03  0.50400001928E-02 0. -1.
    10030    2    1    2    0    0  0.00000000000E+00  0.00000000000E+00  0.83214826211E+03  0.18924236358E+04  0.16996459888E+04 0.  0.
        3    1    3    3  502    0 -0.47034694633E+03  0.10592175297E+03 -0.36312532243E+03  0.60357739989E+03  0.10100000352E+00 0. -1.
       -3    1    3    3    0  502  0.47034694633E+03 -0.10592175297E+03  0.11952735845E+04  0.12888462359E+04  0.10100000352E+00 0.  1.
</event>
<event>
 5   0  0.6539134E-05  0.1704047E+04  0.7818609E-02  0.8759060E-01
        1   -1    0    0  501    0  0.00000000000E+00  0.00000000000E+00  0.79517989101E+03  0.79517989103E+03  0.50400001928E-02 0.  1.
       -1   -1    0    0    0  501  0.00000000000E+00  0.00000000000E+00 -0.91293039910E+03  0.91293039912E+03  0.50400001928E-02 0. -1.
    10030    2    1    2    0    0  0.00000000000E+00  0.00000000000E+00 -0.11775050809E+03  0.17081102901E+04  0.17040468248E+04 0.  0.
        2    1    3    3  502    0  0.48239400997E+03  0.67253266873E+03 -0.26169341452E+03  0.86803664356E+03  0.25500000920E-02 0. -1.
       -2    1    3    3    0  502 -0.48239400997E+03 -0.67253266873E+03  0.14394290643E+03  0.84007364658E+03  0.25500000920E-02 0.  1.
</event>
<event>
 5   0  0.1269175E-04  0.1705177E+04  0.7818609E-02  0.8758417E-01
        2   -1    0    0  501    0  0.00000000000E+00  0.00000000000E+00  0.10575900898E+04  0.10575900898E+04  0.25500000920E-02 0. -1.
       -2   -1    0    0    0  501  0.00000000000E+00  0.00000000000E+00 -0.68732375250E+03  0.68732375250E+03  0.25500000920E-02 0.  1.
    10030    2    1    2    0    0  0.00000000000E+00  0.00000000000E+00  0.37026633731E+03  0.17449138423E+04  0.17051765764E+04 0.  0.
        2    1    3    3  502    0  0.74308162122E+03  0.48040360175E+02  0.61005525218E+03  0.96262432066E+03  0.25500000920E-02 0. -1.
       -2    1    3    3    0  502 -0.74308162122E+03 -0.48040360175E+02 -0.23978891486E+03  0.78228952166E+03  0.25500000920E-02 0.  1.
</event>
<event>
 5   0  0.1393870E-04  0.1698083E+04  0.7818609E-02  0.8762458E-01
        2   -1    0    0  501    0  0.00000000000E+00  0.00000000000E+00  0.29775770505E+04  0.29775770505E+04  0.25500000920E-02 0.  1.
       -2   -1    0    0    0  501  0.00000000000E+00  0.00000000000E+00 -0.24210011990E+03  0.24210011991E+03  0.25500000920E-02 0. -1.
    10030    2    1    2    0    0  0.00000000000E+00  0.00000000000E+00  0.27354769306E+04  0.32196771704E+04  0.16980833442E+04 0.  0.
        3    1    3    3  502    0  0.14628050340E+03  0.34471414453E+03  0.28125427361E+04  0.28373618873E+04  0.10100000352E+00 0.  1.
       -3    1    3    3    0  502 -0.14628050340E+03 -0.34471414453E+03 -0.77065805477E+02  0.38231528309E+03  0.10100000352E+00 0. -1.
</event>
<event>
 5   0  0.6834837E-05  0.1698635E+04  0.7818609E-02  0.8762143E-01
        1   -1    0    0  501    0  0.00000000000E+00  0.00000000000E+00  0.19504003577E+04  0.19504003577E+04  0.50400001928E-02 0.  1.
       -1   -1    0    0    0  501  0.00000000000E+00  0.00000000000E+00 -0.36984220726E+03  0.36984220729E+03  0.50400001928E-02 0. -1.
    10030    2    1    2    0    0  0.00000000000E+00  0.00000000000E+00  0.15805581504E+04  0.23202425650E+04  0.16986351855E+04 0.  0.
        5    1    3    3  502    0  0.26898387142E+03 -0.80054160059E+03  0.66735079232E+03  0.10763820639E+04  0.46999998093E+01 0.  1.
       -5    1    3    3    0  502 -0.26898387142E+03  0.80054160059E+03  0.91320735810E+03  0.12438605011E+04  0.46999998093E+01 0. -1.
</event>
<event>
 5   0  0.6601906E-05  0.1700149E+04  0.7818609E-02  0.8761280E-01
        1   -1    0    0  501    0  0.00000000000E+00  0.00000000000E+00  0.22326844193E+04  0.22326844193E+04  0.50400001928E-02 0. -1.
       -1   -1    0    0    0  501  0.00000000000E+00  0.00000000000E+00 -0.32365804132E+03  0.32365804136E+03  0.50400001928E-02 0.  1.
    10030    2    1    2    0    0  0.00000000000E+00  0.00000000000E+00  0.19090263780E+04  0.25563424607E+04  0.17001485418E+04 0.  0.
        1    1    3    3  502    0 -0.77513614498E+03 -0.31688253125E+03  0.11743458306E+04  0.14423379326E+04  0.50400001928E-02 0.  1.
       -1    1    3    3    0  502  0.77513614498E+03  0.31688253125E+03  0.73468054738E+03  0.11140045281E+04  0.50400001928E-02 0. -1.
</event>
<event>
 5   0  0.6834837E-05  0.1697306E+04  0.7818609E-02  0.8762902E-01
       -1   -1    0    0    0  501  0.00000000000E+00  0.00000000000E+00  0.66888593204E+03  0.66888593206E+03  0.50400001928E-02 0. -1.
        1   -1    0    0  501    0  0.00000000000E+00  0.00000000000E+00 -0.10767332190E+04  0.10767332190E+04  0.50400001928E-02 0.  1.
    10030    2    1    2    0    0  0.00000000000E+00  0.00000000000E+00 -0.40784728699E+03  0.17456191511E+04  0.16973057506E+04 0.  0.
        5    1    3    3  502    0 -0.37080733220E+03  0.45766249502E+03  0.42439726728E+03  0.72600837973E+03  0.46999998093E+01 0. -1.
       -5    1    3    3    0  502  0.37080733220E+03 -0.45766249502E+03 -0.83224455427E+03  0.10196107714E+04  0.46999998093E+01 0.  1.
</event>
<event>
 5   0  0.1333546E-04  0.1695296E+04  0.7818609E-02  0.8764052E-01
       -2   -1    0    0    0  501  0.00000000000E+00  0.00000000000E+00  0.53177054309E+03  0.53177054309E+03  0.25500000920E-02 0.  1.
        2   -1    0    0  501    0  0.00000000000E+00  0.00000000000E+00 -0.13511596671E+04  0.13511596671E+04  0.25500000920E-02 0. -1.
    10030    2    1    2    0    0  0.00000000000E+00  0.00000000000E+00 -0.81938912402E+03  0.18829302102E+04  0.16952957382E+04 0.  0.
        5    1    3    3  502    0 -0.49314504616E+03 -0.45651684080E+03  0.16409278095E+03  0.69177177830E+03  0.46999998093E+01 0.  1.
       -5    1    3    3    0  502  0.49314504616E+03  0.45651684080E+03 -0.98348190498E+03  0.11911584319E+04  0.46999998093E+01 0. -1.
</event>
<event>
 5   0  0.4720875E-05  0.1710426E+04  0.7818609E-02  0.8755440E-01
        3   -1    0    0  501    0  0.00000000000E+00  0.00000000000E+00  0.81750722540E+03  0.81750723164E+03  0.10100000352E+00 0.  1.
       -3   -1    0    0    0  501  0.00000000000E+00  0.00000000000E+00 -0.89465787809E+03  0.89465788379E+03  0.10100000352E+00 0. -1.
    10030    2    1    2    0    0  0.00000000000E+00  0.00000000000E+00 -0.77150652688E+02  0.17121651154E+04  0.17104260169E+04 0.  0.
        3    1    3    3  502    0  0.70260390888E+03 -0.45439553170E+03 -0.21556496302E+03  0.86405776166E+03  0.10100000352E+00 0. -1.
       -3    1    3    3    0  502 -0.70260390888E+03  0.45439553170E+03  0.13841431033E+03  0.84810735377E+03  0.10100000352E+00 0.  1.
</event>
<event>
 5   0  0.1269175E-04  0.1700251E+04  0.7818609E-02  0.8761221E-01
        2   -1    0    0  501    0  0.00000000000E+00  0.00000000000E+00  0.80635797371E+03  0.80635797372E+03  0.25500000920E-02 0. -1.
       -2   -1    0    0    0  501  0.00000000000E+00  0.00000000000E+00 -0.89626844715E+03  0.89626844715E+03  0.25500000920E-02 0.  1.
    10030    2    1    2    0    0  0.00000000000E+00  0.00000000000E+00 -0.89910473436E+02  0.17026264209E+04  0.17002508156E+04 0.  0.
        2    1    3    3  502    0  0.27732595273E+03 -0.52720623457E+03 -0.65231491236E+03  0.88338601003E+03  0.25500000920E-02 0.  1.
       -2    1    3    3    0  502 -0.27732595273E+03  0.52720623457E+03  0.56240443893E+03  0.81924041084E+03  0.25500000920E-02 0. -1.
</event>
<event>
 5   0  0.1269175E-04  0.1698387E+04  0.7818609E-02  0.8762285E-01
       -2   -1    0    0    0  501  0.00000000000E+00  0.00000000000E+00  0.63006871289E+03  0.63006871290E+03  0.25500000920E-02 0.  1.
        2   -1    0    0  501    0  0.00000000000E+00  0.00000000000E+00 -0.11445252393E+04  0.11445252393E+04  0.25500000920E-02 0. -1.
    10030    2    1    2    0    0  0.00000000000E+00  0.00000000000E+00 -0.51445652644E+03  0.17745939522E+04  0.16983869340E+04 0.  0.
        2    1    3    3  502    0  0.94233652702E+02  0.53312225445E+03 -0.94082436224E+03  0.10854721554E+04  0.25500000920E-02 0. -1.
       -2    1    3    3    0  502 -0.94233652702E+02 -0.53312225445E+03  0.42636783580E+03  0.68912179686E+03  0.25500000920E-02 0.  1.
</event>
<event>
 5   0  0.1333546E-04  0.1686225E+04  0.7818609E-02  0.8769260E-01
        2   -1    0    0  501    0  0.00000000000E+00  0.00000000000E+00  0.12984802511E+04  0.12984802511E+04  0.25500000920E-02 0. -1.
       -2   -1    0    0    0  501  0.00000000000E+00  0.00000000000E+00 -0.54743918879E+03  0.54743918880E+03  0.25500000920E-02 0.  1.
    10030    2    1    2    0    0  0.00000000000E+00  0.00000000000E+00  0.75104106226E+03  0.18459194399E+04  0.16862253412E+04 0.  0.
        5    1    3    3  502    0 -0.31828696742E+03 -0.62698478521E+03  0.88476477888E+03  0.11301536703E+04  0.46999998093E+01 0. -1.
       -5    1    3    3    0  502  0.31828696742E+03  0.62698478521E+03 -0.13372371662E+03  0.71576576957E+03  0.46999998093E+01 0.  1.
</event>
<event>
 5   0  0.1255362E-04  0.1707102E+04  0.7818609E-02  0.8757324E-01
        2   -1    0    0  501    0  0.00000000000E+00  0.00000000000E+00  0.72241053496E+03  0.72241053496E+03  0.25500000920E-02 0. -1.
       -2   -1    0    0    0  501  0.00000000000E+00  0.00000000000E+00 -0.10084979631E+04  0.10084979631E+04  0.25500000920E-02 0.  1.
    10030    2    1    2    0    0  0.00000000000E+00  0.00000000000E+00 -0.28608742814E+03  0.17309084981E+04  0.17071022852E+04 0.  0.
        1    1    3    3  502    0 -0.83788691243E+03  0.81270356956E+02 -0.28604310442E+03  0.88908942551E+03  0.50400001928E-02 0.  1.
       -1    1    3    3    0  502  0.83788691243E+03 -0.81270356956E+02 -0.44323721175E-01  0.84181907256E+03  0.50400001928E-02 0. -1.
</event>
<event>
 5   0  0.1269175E-04  0.1701120E+04  0.7818609E-02  0.8760726E-01
       -2   -1    0    0    0  501  0.00000000000E+00  0.00000000000E+00  0.64719970164E+03  0.64719970164E+03  0.25500000920E-02 0. -1.
        2   -1    0    0  501    0  0.00000000000E+00  0.00000000000E+00 -0.11178194267E+04  0.11178194267E+04  0.25500000920E-02 0.  1.
    10030    2    1    2    0    0  0.00000000000E+00  0.00000000000E+00 -0.47061972506E+03  0.17650191283E+04  0.17011201009E+04 0.  0.
        2    1    3    3  502    0 -0.43577600971E+03 -0.18900937201E+03 -0.96738173136E+03  0.10777071437E+04  0.25500000920E-02 0.  1.
       -2    1    3    3    0  502  0.43577600971E+03  0.18900937201E+03  0.49676200631E+03  0.68731198466E+03  0.25500000920E-02 0. -1.
</event>
<event>
 5   0  0.1255362E-04  0.1678225E+04  0.7818609E-02  0.8773882E-01
       -2   -1    0    0    0  501  0.00000000000E+00  0.00000000000E+00  0.95743459225E+03  0.95743459225E+03  0.25500000920E-02 0.  1.
        2   -1    0    0  501    0  0.00000000000E+00  0.00000000000E+00 -0.73541311555E+03  0.73541311556E+03  0.25500000920E-02 0. -1.
    10030    2    1    2    0    0  0.00000000000E+00  0.00000000000E+00  0.22202147670E+03  0.16928477078E+04  0.16782252011E+04 0.  0.
        1    1    3    3  502    0 -0.46112921637E+03  0.68139129023E+03 -0.55276191748E+02  0.82461488101E+03  0.50400001928E-02 0.  1.
       -1    1    3    3    0  502  0.46112921637E+03 -0.68139129023E+03  0.27729766845E+03  0.86823282680E+03  0.50400001928E-02 0. -1.
</event>
<event>
 5   0  0.6564887E-05  0.1703861E+04  0.7818609E-02  0.8759165E-01
        1   -1    0    0  501    0  0.00000000000E+00  0.00000000000E+00  0.91802102677E+03  0.91802102679E+03  0.50400001928E-02 0. -1.
       -1   -1    0    0    0  501  0.00000000000E+00  0.00000000000E+00 -0.79059793887E+03  0.79059793888E+03  0.50400001928E-02 0.  1.
    10030    2    1    2    0    0  0.00000000000E+00  0.00000000000E+00  0.12742308791E+03  0.17086189657E+04  0.17038609469E+04 0.  0.
        4    1    3    3  502    0 -0.26354709655E+03 -0.99023172622E+02 -0.74259925895E+03  0.79417751990E+03  0.12699999809E+01 0.  1.
       -4    1    3    3    0  502  0.26354709655E+03  0.99023172622E+02  0.87002234686E+03  0.91444144577E+03  0.12699999809E+01 0. -1.
</event>
<event>
 5   0  0.6564887E-05  0.1694702E+04  0.7818609E-02  0.8764392E-01
       -1   -1    0    0    0  501  0.00000000000E+00  0.00000000000E+00  0.50108689458E+03  0.50108689461E+03  0.50400001928E-02 0.  1.
        1   -1    0    0  501    0  0.00000000000E+00  0.00000000000E+00 -0.14328921942E+04  0.14328921942E+04  0.50400001928E-02 0. -1.
    10030    2    1    2    0    0  0.00000000000E+00  0.00000000000E+00 -0.93180529958E+03  0.19339790888E+04  0.16947017435E+04 0.  0.
        4    1    3    3  502    0 -0.21875070780E+03 -0.63898315331E+03 -0.10498655253E+04  0.12483471378E+04  0.12699999809E+01 0. -1.
       -4    1    3    3    0  502  0.21875070780E+03  0.63898315331E+03  0.11806022573E+03  0.68563195096E+03  0.12699999809E+01 0.  1.
</event>
<event>
 5   0  0.6564887E-05  0.1699934E+04  0.7818609E-02  0.8761402E-01
       -1   -1    0    0    0  501  0.00000000000E+00  0.00000000000E+00  0.61689942605E+03  0.61689942607E+03  0.50400001928E-02 0. -1.
        1   -1    0    0  501    0  0.00000000000E+00  0.00000000000E+00 -0.11710883704E+04  0.11710883704E+04  0.50400001928E-02 0.  1.
    10030    2    1    2    0    0  0.00000000000E+00  0.00000000000E+00 -0.55418894433E+03  0.17879877965E+04  0.16999338147E+04 0.  0.
        4    1    3    3  502    0  0.18633928870E+03  0.32767136048E+02  0.59446900127E+03  0.62385176292E+03  0.12699999809E+01 0. -1.
       -4    1    3    3    0  502 -0.18633928870E+03 -0.32767136048E+02 -0.11486579456E+04  0.11641360336E+04  0.12699999809E+01 0.  1.
</event>
<event>
 5   0  0.1285639E-04  0.1697143E+04  0.7818609E-02  0.8762995E-01
       -2   -1    0    0    0  501  0.00000000000E+00  0.00000000000E+00  0.65152122806E+03  0.65152122806E+03  0.25500000920E-02 0.  1.
        2   -1    0    0  501    0  0.00000000000E+00  0.00000000000E+00 -0.11052190178E+04  0.11052190178E+04  0.25500000920E-02 0. -1.
    10030    2    1    2    0    0  0.00000000000E+00  0.00000000000E+00 -0.45369778970E+03  0.17567402458E+04  0.16971430720E+04 0.  0.
        4    1    3    3  502    0 -0.44468100663E+03  0.26317560967E+03  0.46989228531E+03  0.69842893116E+03  0.12699999809E+01 0.  1.
       -4    1    3    3    0  502  0.44468100663E+03 -0.26317560967E+03 -0.92359007502E+03  0.10583113147E+04  0.12699999809E+01 0. -1.
</event>
<event>
 5   0  0.6834837E-05  0.1694247E+04  0.7818609E-02  0.8764652E-01
       -1   -1    0    0    0  501  0.00000000000E+00  0.00000000000E+00  0.49377638274E+03  0.49377638276E+03  0.50400001928E-02 0. -1.
        1   -1    0    0  501    0  0.00000000000E+00  0.00000000000E+00 -0.14533258632E+04  0.14533258632E+04  0.50400001928E-02 0.  1.
    10030    2    1    2    0    0  0.00000000000E+00  0.00000000000E+00 -0.95954948044E+03  0.19471022459E+04  0.16942467207E+04 0.  0.
        5    1    3    3  502    0 -0.26550049142E+03  0.64015732213E+03  0.80066160581E+02  0.69765649720E+03  0.46999998093E+01 0. -1.
       -5    1    3    3    0  502  0.26550049142E+03 -0.64015732213E+03 -0.10396156410E+04  0.12494457487E+04  0.46999998093E+01 0.  1.
</event>
<event>
 5   0  0.6539134E-05  0.1707455E+04  0.7818609E-02  0.8757124E-01
        1   -1    0    0  501    0  0.00000000000E+00  0.00000000000E+00  0.13844887433E+04  0.13844887433E+04  0.50400001928E-02 0. -1.
       -1   -1    0    0    0  501  0.00000000000E+00  0.00000000000E+00 -0.52644018038E+03  0.52644018040E+03  0.50400001928E-02 0.  1.
    10030    2    1    2    0    0  0.00000000000E+00  0.00000000000E+00  0.85804856295E+03  0.19109289237E+04  0.17074548355E+04 0.  0.
        2    1    3    3  502    0  0.20469033144E+03 -0.82565683400E+03  0.51006290403E+03  0.99185256232E+03  0.25500000920E-02 0.  1.
       -2    1    3    3    0  502 -0.20469033144E+03  0.82565683400E+03  0.34798565892E+03  0.91907636143E+03  0.25500000920E-02 0. -1.
</event>
<event>
 5   0  0.6564887E-05  0.1698617E+04  0.7818609E-02  0.8762154E-01
        1   -1    0    0  501    0  0.00000000000E+00  0.00000000000E+00  0.79007575389E+03  0.79007575391E+03  0.50400001928E-02 0. -1.
       -1   -1    0    0    0  501  0.00000000000E+00  0.00000000000E+00 -0.91298170916E+03  0.91298170917E+03  0.50400001928E-02 0.  1.
    10030    2    1    2    0    0  0.00000000000E+00  0.00000000000E+00 -0.12290595526E+03  0.17030574631E+04  0.16986167457E+04 0.  0.
        4    1    3    3  502    0 -0.15425701907E+03  0.78157843660E+03 -0.35660842782E+03  0.87282945881E+03  0.12699999809E+01 0.  1.
       -4    1    3    3    0  502  0.15425701907E+03 -0.78157843660E+03  0.23370247255E+03  0.83022800426E+03  0.12699999809E+01 0. -1.
</event>
<event>
 5   0  0.6564887E-05  0.1700291E+04  0.7818609E-02  0.8761198E-01
       -1   -1    0    0    0  501  0.00000000000E+00  0.00000000000E+00  0.57029841841E+03  0.57029841843E+03  0.50400001928E-02 0.  1.
        1   -1    0    0  501    0  0.00000000000E+00  0.00000000000E+00 -0.12673141577E+04  0.12673141577E+04  0.50400001928E-02 0. -1.
    10030    2    1    2    0    0  0.00000000000E+00  0.00000000000E+00 -0.69701573929E+03  0.18376125761E+04  0.17002908690E+04 0.  0.
        4    1    3    3  502    0 -0.91274634510E+02  0.79609406056E+03 -0.41584625332E+02  0.80238875000E+03  0.12699999809E+01 0.  1.
       -4    1    3    3    0  502  0.91274634510E+02 -0.79609406056E+03 -0.65543111396E+03  0.10352238261E+04  0.12699999809E+01 0. -1.
</event>
<event>
 5   0  0.1393870E-04  0.1702562E+04  0.7818609E-02  0.8759905E-01
        2   -1    0    0  501    0  0.00000000000E+00  0.00000000000E+00  0.95374374875E+03  0.95374374875E+03  0.25500000920E-02 0. -1.
       -2   -1    0    0    0  501  0.00000000000E+00  0.00000000000E+00 -0.75982584897E+03  0.75982584897E+03  0.25500000920E-02 0.  1.
    10030    2    1    2    0    0  0.00000000000E+00  0.00000000000E+00  0.19391789978E+03  0.17135695977E+04  0.17025617799E+04 0.  0.
        3    1    3    3  502    0 -0.60219577639E+03 -0.59416031912E+03  0.14088211278E+01  0.84597176838E+03  0.10100000352E+00 0.  1.
       -3    1    3    3    0  502  0.60219577639E+03  0.59416031912E+03  0.19250907865E+03  0.86759782935E+03  0.10100000352E+00 0. -1.
</event>
<event>
 5   0  0.6539134E-05  0.1716990E+04  0.7818609E-02  0.8751733E-01
        1   -1    0    0  501    0  0.00000000000E+00  0.00000000000E+00  0.13520816350E+04  0.13520816351E+04  0.50400001928E-02 0. -1.
       -1   -1    0    0    0  501  0.00000000000E+00  0.00000000000E+00 -0.54509533620E+03  0.54509533622E+03  0.50400001928E-02 0.  1.
    10030    2    1    2    0    0  0.00000000000E+00  0.00000000000E+00  0.80698629885E+03  0.18971769713E+04  0.17169896837E+04 0.  0.
        2    1    3    3  502    0 -0.85937782769E+02  0.85408291098E+03  0.41791984359E+03  0.95472504786E+03  0.25500000920E-02 0. -1.
       -2    1    3    3    0  502  0.85937782769E+02 -0.85408291098E+03  0.38906645527E+03  0.94245192342E+03  0.25500000920E-02 0.  1.
</event>
<event>
 5   0  0.1393870E-04  0.1698893E+04  0.7818609E-02  0.8761996E-01
       -2   -1    0    0    0  501  0.00000000000E+00  0.00000000000E+00  0.14960393320E+04  0.14960393320E+04  0.25500000920E-02 0.  1.
        2   -1    0    0  501    0  0.00000000000E+00  0.00000000000E+00 -0.48231333734E+03  0.48231333734E+03  0.25500000920E-02 0. -1.
    10030    2    1    2    0    0  0.00000000000E+00  0.00000000000E+00  0.10137259947E+04  0.19783526694E+04  0.16988934316E+04 0.  0.
        3    1    3    3  502    0 -0.80421641947E+03 -0.13068891478E+03  0.22710278070E+03  0.84582464199E+03  0.10100000352E+00 0. -1.
       -3    1    3    3    0  502  0.80421641947E+03  0.13068891478E+03  0.78662321398E+03  0.11325280274E+04  0.10100000352E+00 0.  1.
</event>
<event>
 5   0  0.6834837E-05  0.1705900E+04  0.7818609E-02  0.8758007E-01
       -1   -1    0    0    0  501  0.00000000000E+00  0.00000000000E+00  0.82350212356E+03  0.82350212357E+03  0.50400001928E-02 0. -1.
        1   -1    0    0  501    0  0.00000000000E+00  0.00000000000E+00 -0.88345053834E+03  0.88345053835E+03  0.50400001928E-02 0.  1.
    10030    2    1    2    0    0  0.00000000000E+00  0.00000000000E+00 -0.59948414777E+02  0.17069526619E+04  0.17058996388E+04 0.  0.
        5    1    3    3  502    0  0.22853803039E+03 -0.64596546862E+03  0.47827661967E+03  0.83562649126E+03  0.46999998093E+01 0. -1.
       -5    1    3    3    0  502 -0.22853803039E+03  0.64596546862E+03 -0.53822503444E+03  0.87132617066E+03  0.46999998093E+01 0.  1.
</event>
<event>
 5   0  0.1393870E-04  0.1700098E+04  0.7818609E-02  0.8761308E-01
       -2   -1    0    0    0  501  0.00000000000E+00  0.00000000000E+00  0.60146183755E+03  0.60146183756E+03  0.25500000920E-02 0.  1.
        2   -1    0    0  501    0  0.00000000000E+00  0.00000000000E+00 -0.12013784864E+04  0.12013784864E+04  0.25500000920E-02 0. -1.
    10030    2    1    2    0    0  0.00000000000E+00  0.00000000000E+00 -0.59991664884E+03  0.18028403240E+04  0.17000980113E+04 0.  0.
        3    1    3    3  502    0  0.64764553158E+03  0.12696808673E+03  0.26815846349E+03  0.71237251587E+03  0.10100000352E+00 0.  1.
       -3    1    3    3    0  502 -0.64764553158E+03 -0.12696808673E+03 -0.86807511233E+03  0.10904678081E+04  0.10100000352E+00 0. -1.
</event>
<event>
 5   0  0.6615842E-05  0.1684470E+04  0.7818609E-02  0.8770272E-01
       -1   -1    0    0    0  501  0.00000000000E+00  0.00000000000E+00  0.50908749895E+03  0.50908749898E+03  0.50400001928E-02 0. -1.
        1   -1    0    0  501    0  0.00000000000E+00  0.00000000000E+00 -0.13933947878E+04  0.13933947878E+04  0.50400001928E-02 0.  1.
    10030    2    1    2    0    0  0.00000000000E+00  0.00000000000E+00 -0.88430728889E+03  0.19024822868E+04  0.16844700860E+04 0.  0.
        3    1    3    3  502    0  0.17300684364E+03  0.73122319393E+03 -0.87184171716E+03  0.11509677308E+04  0.10100000352E+00 0.  1.
       -3    1    3    3    0  502 -0.17300684364E+03 -0.73122319393E+03 -0.12465571733E+02  0.75151455606E+03  0.10100000352E+00 0. -1.
</event>
<event>
 5   0  0.6834837E-05  0.1696487E+04  0.7818609E-02  0.8763371E-01
        1   -1    0    0  501    0  0.00000000000E+00  0.00000000000E+00  0.70278469374E+03  0.70278469376E+03  0.50400001928E-02 0. -1.
       -1   -1    0    0    0  501  0.00000000000E+00  0.00000000000E+00 -0.10238083804E+04  0.10238083804E+04  0.50400001928E-02 0.  1.
    10030    2    1    2    0    0  0.00000000000E+00  0.00000000000E+00 -0.32102368664E+03  0.17265930741E+04  0.16964867923E+04 0.  0.
        5    1    3    3  502    0 -0.33393457525E+03 -0.90354392219E+02  0.62771180201E+03  0.71674291983E+03  0.46999998093E+01 0. -1.
       -5    1    3    3    0  502  0.33393457525E+03  0.90354392219E+02 -0.94873548865E+03  0.10098501543E+04  0.46999998093E+01 0.  1.
</event>
<event>
 5   0  0.1333546E-04  0.1693146E+04  0.7818609E-02  0.8765283E-01
       -2   -1    0    0    0  501  0.00000000000E+00  0.00000000000E+00  0.59512623712E+03  0.59512623713E+03  0.25500000920E-02 0.  1.
        2   -1    0    0  501    0  0.00000000000E+00  0.00000000000E+00 -0.12042590155E+04  0.12042590155E+04  0.25500000920E-02 0. -1.
    10030    2    1    2    0    0  0.00000000000E+00  0.00000000000E+00 -0.60913277841E+03  0.17993852527E+04  0.16931463451E+04 0.  0.
        5    1    3    3  502    0  0.43193905929E+03 -0.14978430837E+03 -0.10617740538E+04  0.11560246196E+04  0.46999998093E+01 0. -1.
       -5    1    3    3    0  502 -0.43193905929E+03  0.14978430837E+03  0.45264127535E+03  0.64336063302E+03  0.46999998093E+01 0.  1.
</event>
<event>
 5   0  0.6615842E-05  0.1697283E+04  0.7818609E-02  0.8762916E-01
       -1   -1    0    0    0  501  0.00000000000E+00  0.00000000000E+00  0.34655255307E+03  0.34655255310E+03  0.50400001928E-02 0.  1.
        1   -1    0    0  501    0  0.00000000000E+00  0.00000000000E+00 -0.20781620288E+04  0.20781620288E+04  0.50400001928E-02 0. -1.
    10030    2    1    2    0    0  0.00000000000E+00  0.00000000000E+00 -0.17316094757E+04  0.24247145819E+04  0.16972829544E+04 0.  0.
        3    1    3    3  502    0  0.28604883709E+03  0.58527651693E+03 -0.16428029153E+04  0.17672503975E+04  0.10100000352E+00 0. -1.
       -3    1    3    3    0  502 -0.28604883709E+03 -0.58527651693E+03 -0.88806560394E+02  0.65746418445E+03  0.10100000352E+00 0.  1.
</event>
<event>
 5   0  0.6539134E-05  0.1697294E+04  0.7818609E-02  0.8762909E-01
       -1   -1    0    0    0  501  0.00000000000E+00  0.00000000000E+00  0.97251729109E+03  0.97251729110E+03  0.50400001928E-02 0. -1.
        1   -1    0    0  501    0  0.00000000000E+00  0.00000000000E+00 -0.74055399505E+03  0.74055399506E+03  0.50400001928E-02 0.  1.
    10030    2    1    2    0    0  0.00000000000E+00  0.00000000000E+00  0.23196329604E+03  0.17130712862E+04  0.16972938051E+04 0.  0.
        2    1    3    3  502    0  0.19765405630E+03 -0.26141376754E+03  0.90607212005E+03  0.96352009349E+03  0.25500000920E-02 0. -1.
       -2    1    3    3    0  502 -0.19765405630E+03  0.26141376754E+03 -0.67410882401E+03  0.74955119267E+03  0.25500000920E-02 0.  1.
</event>
<event>
 5   0  0.1269175E-04  0.1720320E+04  0.7818609E-02  0.8749859E-01
        2   -1    0    0  501    0  0.00000000000E+00  0.00000000000E+00  0.26144175361E+04  0.26144175361E+04  0.25500000920E-02 0. -1.
       -2   -1    0    0    0  501  0.00000000000E+00  0.00000000000E+00 -0.28299823390E+03  0.28299823391E+03  0.25500000920E-02 0.  1.
    10030    2    1    2    0    0  0.00000000000E+00  0.00000000000E+00  0.23314193022E+04  0.28974157700E+04  0.17203203718E+04 0.  0.
        2    1    3    3  502    0  0.20584037530E+03  0.35306344847E+03  0.24404522806E+04  0.24744355705E+04  0.25500000920E-02 0. -1.
       -2    1    3    3    0  502 -0.20584037530E+03 -0.35306344847E+03 -0.10903297844E+03  0.42298019947E+03  0.25500000920E-02 0.  1.
</event>
<event>
 5   0  0.1269175E-04  0.1708853E+04  0.7818609E-02  0.8756331E-01
        2   -1    0    0  501    0  0.00000000000E+00  0.00000000000E+00  0.11681956305E+04  0.11681956305E+04  0.25500000920E-02 0.  1.
       -2   -1    0    0    0  501  0.00000000000E+00  0.00000000000E+00 -0.62493352932E+03  0.62493352932E+03  0.25500000920E-02 0. -1.
    10030    2    1    2    0    0  0.00000000000E+00  0.00000000000E+00  0.54326210119E+03  0.17931291598E+04  0.17088529701E+04 0.  0.
        2    1    3    3  502    0  0.25930917964E+03 -0.23767262190E+03 -0.54543292899E+03  0.64901972688E+03  0.25500000920E-02 0. -1.
       -2    1    3    3    0  502 -0.25930917964E+03  0.23767262190E+03  0.10886950302E+04  0.11441094330E+04  0.25500000920E-02 0.  1.
</event>
<event>
 5   0  0.1285639E-04  0.1687870E+04  0.7818609E-02  0.8768313E-01
        2   -1    0    0  501    0  0.00000000000E+00  0.00000000000E+00  0.18133837538E+04  0.18133837538E+04  0.25500000920E-02 0.  1.
       -2   -1    0    0    0  501  0.00000000000E+00  0.00000000000E+00 -0.39276080444E+03  0.39276080445E+03  0.25500000920E-02 0. -1.
    10030    2    1    2    0    0  0.00000000000E+00  0.00000000000E+00  0.14206229494E+04  0.22061445583E+04  0.16878697366E+04 0.  0.
        4    1    3    3  502    0  0.76383811317E+03 -0.15155400791E+03  0.28515129073E+03  0.82929497282E+03  0.12699999809E+01 0. -1.
       -4    1    3    3    0  502 -0.76383811317E+03  0.15155400791E+03  0.11354716587E+04  0.13768495855E+04  0.12699999809E+01 0.  1.
</event>
<event>
 5   0  0.1255362E-04  0.1698025E+04  0.7818609E-02  0.8762491E-01
        2   -1    0    0  501    0  0.00000000000E+00  0.00000000000E+00  0.46709112332E+03  0.46709112333E+03  0.25500000920E-02 0. -1.
       -2   -1    0    0    0  501  0.00000000000E+00  0.00000000000E+00 -0.15432159018E+04  0.15432159018E+04  0.25500000920E-02 0.  1.
    10030    2    1    2    0    0  0.00000000000E+00  0.00000000000E+00 -0.10761247785E+04  0.20103070251E+04  0.16980252638E+04 0.  0.
        1    1    3    3  502    0  0.59098338720E+03 -0.57282336589E+03 -0.29132467383E+03  0.87307390183E+03  0.50400001928E-02 0.  1.
       -1    1    3    3    0  502 -0.59098338720E+03  0.57282336589E+03 -0.78480010465E+03  0.11372331233E+04  0.50400001928E-02 0. -1.
</event>
<event>
 5   0  0.4720875E-05  0.1723866E+04  0.7818609E-02  0.8747868E-01
        4   -1    0    0  501    0  0.00000000000E+00  0.00000000000E+00  0.45636826142E+03  0.45637002852E+03  0.12699999809E+01 0.  1.
       -4   -1    0    0    0  501  0.00000000000E+00  0.00000000000E+00 -0.16279097988E+04  0.16279102942E+04  0.12699999809E+01 0. -1.
    10030    2    1    2    0    0  0.00000000000E+00  0.00000000000E+00 -0.11715415374E+04  0.20842803228E+04  0.17238662622E+04 0.  0.
        5    1    3    3  502    0  0.16641238766E+03 -0.47747355070E+03  0.25818698769E+03  0.56776463873E+03  0.46999998093E+01 0.  1.
       -5    1    3    3    0  502 -0.16641238766E+03  0.47747355070E+03 -0.14297285251E+04  0.15165156840E+04  0.46999998093E+01 0. -1.
</event>
<event>
 5   0  0.1285639E-04  0.1696514E+04  0.7818609E-02  0.8763355E-01
        2   -1    0    0  501    0  0.00000000000E+00  0.00000000000E+00  0.45459158628E+03  0.45459158628E+03  0.25500000920E-02 0. -1.
       -2   -1    0    0    0  501  0.00000000000E+00  0.00000000000E+00 -0.15828279037E+04  0.15828279037E+04  0.25500000920E-02 0.  1.
    10030    2    1    2    0    0  0.00000000000E+00  0.00000000000E+00 -0.11282363174E+04  0.20374194899E+04  0.16965143648E+04 0.  0.
        4    1    3    3  502    0  0.76071695448E+03 -0.28136862774E+03 -0.26585799190E+03  0.85354594151E+03  0.12699999809E+01 0.  1.
       -4    1    3    3    0  502 -0.76071695448E+03  0.28136862774E+03 -0.86237832548E+03  0.11838735484E+04  0.12699999809E+01 0. -1.
</event>
<event>
 5   0  0.1393870E-04  0.1702155E+04  0.7818609E-02  0.8760136E-01
        2   -1    0    0  501    0  0.00000000000E+00  0.00000000000E+00  0.10145176412E+04  0.10145176413E+04  0.25500000920E-02 0. -1.
       -2   -1    0    0    0  501  0.00000000000E+00  0.00000000000E+00 -0.71396776659E+03  0.71396776659E+03  0.25500000920E-02 0.  1.
    10030    2    1    2    0    0  0.00000000000E+00  0.00000000000E+00  0.30054987466E+03  0.17284854078E+04  0.17021549806E+04 0.  0.
        3    1    3    3  502    0 -0.17935225912E+03  0.83192795936E+03  0.14231001771E+03  0.86285775987E+03  0.10100000352E+00 0. -1.
       -3    1    3    3    0  502  0.17935225912E+03 -0.83192795936E+03  0.15823985695E+03  0.86562764798E+03  0.10100000352E+00 0.  1.
</event>
<event>
 5   0  0.4720875E-05  0.1690956E+04  0.7818609E-02  0.8766539E-01
        3   -1    0    0  501    0  0.00000000000E+00  0.00000000000E+00  0.95195941007E+03  0.95195941543E+03  0.10100000352E+00 0. -1.
       -3   -1    0    0    0  501  0.00000000000E+00  0.00000000000E+00 -0.75090716491E+03  0.75090717170E+03  0.10100000352E+00 0.  1.
    10030    2    1    2    0    0  0.00000000000E+00  0.00000000000E+00  0.20105224516E+03  0.17028665871E+04  0.16909561225E+04 0.  0.
        5    1    3    3  502    0  0.13379693710E+03 -0.71158891257E+03  0.54012190349E+03  0.90333502174E+03  0.46999998093E+01 0. -1.
       -5    1    3    3    0  502 -0.13379693710E+03  0.71158891257E+03 -0.33906965833E+03  0.79953156540E+03  0.46999998093E+01 0.  1.
</event>
<event>
 5   0  0.4720875E-05  0.1699455E+04  0.7818609E-02  0.8761675E-01
       -3   -1    0    0    0  501  0.00000000000E+00  0.00000000000E+00  0.10093085717E+04  0.10093085768E+04  0.10100000352E+00 0.  1.
        3   -1    0    0  501    0  0.00000000000E+00  0.00000000000E+00 -0.71537800798E+03  0.71537801511E+03  0.10100000352E+00 0. -1.
    10030    2    1    2    0    0  0.00000000000E+00  0.00000000000E+00  0.29393056373E+03  0.17246865919E+04  0.16994554021E+04 0.  0.
        5    1    3    3  502    0 -0.51207763800E+03  0.34256271865E+03 -0.44690849758E+03  0.76113206394E+03  0.46999998093E+01 0. -1.
       -5    1    3    3    0  502  0.51207763800E+03 -0.34256271865E+03  0.74083906131E+03  0.96355452794E+03  0.46999998093E+01 0.  1.
</event>
<event>
 5   0  0.6615842E-05  0.1703232E+04  0.7818609E-02  0.8759523E-01
       -1   -1    0    0    0  501  0.00000000000E+00  0.00000000000E+00  0.45448502185E+03  0.45448502188E+03  0.50400001928E-02 0. -1.
        1   -1    0    0  501    0  0.00000000000E+00  0.00000000000E+00 -0.15957619900E+04  0.15957619900E+04  0.50400001928E-02 0.  1.
    10030    2    1    2    0    0  0.00000000000E+00  0.00000000000E+00 -0.11412769682E+04  0.20502470119E+04  0.17032321309E+04 0.  0.
        3    1    3    3  502    0  0.41790674031E+03  0.49482849810E+03  0.94963493681E+02  0.65461390259E+03  0.10100000352E+00 0. -1.
       -3    1    3    3    0  502 -0.41790674031E+03 -0.49482849810E+03 -0.12362404619E+04  0.13956331093E+04  0.10100000352E+00 0.  1.
</event>
<event>
 5   0  0.1333546E-04  0.1699982E+04  0.7818609E-02  0.8761375E-01
        2   -1    0    0  501    0  0.00000000000E+00  0.00000000000E+00  0.18027644579E+04  0.18027644579E+04  0.25500000920E-02 0.  1.
       -2   -1    0    0    0  501  0.00000000000E+00  0.00000000000E+00 -0.40076471520E+03  0.40076471521E+03  0.25500000920E-02 0. -1.
    10030    2    1    2    0    0  0.00000000000E+00  0.00000000000E+00  0.14019997427E+04  0.22035291731E+04  0.16999816288E+04 0.  0.
        5    1    3    3  502    0  0.84807132180E+03  0.34265700939E+02  0.64212308074E+03  0.10643041135E+04  0.46999998093E+01 0.  1.
       -5    1    3    3    0  502 -0.84807132180E+03 -0.34265700939E+02  0.75987666195E+03  0.11392250596E+04  0.46999998093E+01 0. -1.
</event>
<event>
 5   0  0.6564887E-05  0.1708350E+04  0.7818609E-02  0.8756616E-01
        1   -1    0    0  501    0  0.00000000000E+00  0.00000000000E+00  0.60735876667E+03  0.60735876669E+03  0.50400001928E-02 0.  1.
       -1   -1    0    0    0  501  0.00000000000E+00  0.00000000000E+00 -0.12012917631E+04  0.12012917631E+04  0.50400001928E-02 0. -1.
    10030    2    1    2    0    0  0.00000000000E+00  0.00000000000E+00 -0.59393299647E+03  0.18086505298E+04  0.17083501792E+04 0.  0.
        4    1    3    3  502    0 -0.58148282474E+03 -0.70653188175E+02  0.36122479160E+03  0.68818537577E+03  0.12699999809E+01 0.  1.
       -4    1    3    3    0  502  0.58148282474E+03  0.70653188175E+02 -0.95515778807E+03  0.11204651541E+04  0.12699999809E+01 0. -1.
</event>
<event>
 5   0  0.1255362E-04  0.1674311E+04  0.7818609E-02  0.8776153E-01
       -2   -1    0    0    0  501  0.00000000000E+00  0.00000000000E+00  0.53653013840E+03  0.53653013841E+03  0.25500000920E-02 0. -1.
        2   -1    0    0  501    0  0.00000000000E+00  0.00000000000E+00 -0.13062250016E+04  0.13062250016E+04  0.25500000920E-02 0.  1.
    10030    2    1    2    0    0  0.00000000000E+00  0.00000000000E+00 -0.76969486317E+03  0.18427551400E+04  0.16743107010E+04 0.  0.
        1    1    3    3  502    0 -0.94088023414E+02  0.51605412151E+03  0.33322024918E+03  0.62145003578E+03  0.50400001928E-02 0. -1.
       -1    1    3    3    0  502  0.94088023414E+02 -0.51605412151E+03 -0.11029151123E+04  0.12213051042E+04  0.50400001928E-02 0.  1.
</event>
<event>
 5   0  0.1269175E-04  0.1752145E+04  0.7818609E-02  0.8732170E-01
       -2   -1    0    0    0  501  0.00000000000E+00  0.00000000000E+00  0.22871041073E+03  0.22871041074E+03  0.25500000920E-02 0. -1.
        2   -1    0    0  501    0  0.00000000000E+00  0.00000000000E+00 -0.33557860305E+04  0.33557860305E+04  0.25500000920E-02 0.  1.
    10030    2    1    2    0    0  0.00000000000E+00  0.00000000000E+00 -0.31270756198E+04  0.35844964413E+04  0.17521452010E+04 0.  0.
        2    1    3    3  502    0  0.29379952406E+02  0.81323703134E+03 -0.89972986441E+03  0.12131494053E+04  0.25500000920E-02 0. -1.
       -2    1    3    3    0  502 -0.29379952406E+02 -0.81323703134E+03 -0.22273457554E+04  0.23713470359E+04  0.25500000920E-02 0.  1.
</event>
<event>
 5   0  0.6834837E-05  0.1698577E+04  0.7818609E-02  0.8762176E-01
       -1   -1    0    0    0  501  0.00000000000E+00  0.00000000000E+00  0.13226838235E+04  0.13226838235E+04  0.50400001928E-02 0. -1.
        1   -1    0    0  501    0  0.00000000000E+00  0.00000000000E+00 -0.54532409765E+03  0.54532409768E+03  0.50400001928E-02 0.  1.
    10030    2    1    2    0    0  0.00000000000E+00  0.00000000000E+00  0.77735972582E+03  0.18680079212E+04  0.16985774784E+04 0.  0.
        5    1    3    3  502    0 -0.14677546276E+03  0.63028946254E+03  0.99350293844E+03  0.11856972724E+04  0.46999998093E+01 0. -1.
       -5    1    3    3    0  502  0.14677546276E+03 -0.63028946254E+03 -0.21614321263E+03  0.68231064876E+03  0.46999998093E+01 0.  1.
</event>
<event>
 5   0  0.1285639E-04  0.1706571E+04  0.7818609E-02  0.8757625E-01
       -2   -1    0    0    0  501  0.00000000000E+00  0.00000000000E+00  0.11681780166E+04  0.11681780166E+04  0.25500000920E-02 0. -1.
        2   -1    0    0  501    0  0.00000000000E+00  0.00000000000E+00 -0.62327519599E+03  0.62327519600E+03  0.25500000920E-02 0.  1.
    10030    2    1    2    0    0  0.00000000000E+00  0.00000000000E+00  0.54490282056E+03  0.17914532126E+04  0.17065712786E+04 0.  0.
        4    1    3    3  502    0  0.56456198874E+03 -0.36815728234E+03 -0.27685843684E+03  0.72864410423E+03  0.12699999809E+01 0.  1.
       -4    1    3    3    0  502 -0.56456198874E+03  0.36815728234E+03  0.82176125740E+03  0.10628091083E+04  0.12699999809E+01 0. -1.
</event>
<event>
 5   0  0.1333546E-04  0.1687766E+04  0.7818609E-02  0.8768373E-01
       -2   -1    0    0    0  501  0.00000000000E+00  0.00000000000E+00  0.37488013148E+03  0.37488013149E+03  0.25500000920E-02 0.  1.
        2   -1    0    0  501    0  0.00000000000E+00  0.00000000000E+00 -0.18996431280E+04  0.18996431280E+04  0.25500000920E-02 0. -1.
    10030    2    1    2    0    0  0.00000000000E+00  0.00000000000E+00 -0.15247629965E+04  0.22745232595E+04  0.16877659383E+04 0.  0.
        5    1    3    3  502    0 -0.11685112535E+03 -0.17567489106E+03 -0.18635061825E+04  0.18754181494E+04  0.46999998093E+01 0. -1.
       -5    1    3    3    0  502  0.11685112535E+03  0.17567489106E+03  0.33874318599E+03  0.39910511009E+03  0.46999998093E+01 0.  1.
</event>
<event>
 5   0  0.6564887E-05  0.1709991E+04  0.7818609E-02  0.8755686E-01
        1   -1    0    0  501    0  0.00000000000E+00  0.00000000000E+00  0.92509357578E+03  0.92509357580E+03  0.50400001928E-02 0.  1.
       -1   -1    0    0    0  501  0.00000000000E+00  0.00000000000E+00 -0.79020922074E+03  0.79020922076E+03  0.50400001928E-02 0. -1.
    10030    2    1    2    0    0  0.00000000000E+00  0.00000000000E+00  0.13488435504E+03  0.17153027966E+04  0.17099911972E+04 0.  0.
        4    1    3    3  502    0 -0.37474400535E+03  0.64077116821E+03  0.49301831013E+03  0.89111695449E+03  0.12699999809E+01 0.  1.
       -4    1    3    3    0  502  0.37474400535E+03 -0.64077116821E+03 -0.35813395509E+03  0.82418584206E+03  0.12699999809E+01 0. -1.
</event>
<event>
 5   0  0.1255362E-04  0.1686436E+04  0.7818609E-02  0.8769139E-01
       -2   -1    0    0    0  501  0.00000000000E+00  0.00000000000E+00  0.30285122432E+03  0.30285122433E+03  0.25500000920E-02 0. -1.
        2   -1    0    0  501    0  0.00000000000E+00  0.00000000000E+00 -0.23477416829E+04  0.23477416829E+04  0.25500000920E-02 0.  1.
    10030    2    1    2    0    0  0.00000000000E+00  0.00000000000E+00 -0.20448904586E+04  0.26505929072E+04  0.16864358192E+04 0.  0.
        1    1    3    3  502    0  0.39990904174E+02 -0.79476441167E+03 -0.14607437958E+04  0.16634368577E+04  0.50400001928E-02 0.  1.
       -1    1    3    3    0  502 -0.39990904174E+02  0.79476441167E+03 -0.58414666274E+03  0.98715604951E+03  0.50400001928E-02 0. -1.
</event>
<event>
 5   0  0.4720875E-05  0.1694133E+04  0.7818609E-02  0.8764718E-01
       -3   -1    0    0    0  501  0.00000000000E+00  0.00000000000E+00  0.70863329350E+03  0.70863330069E+03  0.10100000352E+00 0.  1.
        3   -1    0    0  501    0  0.00000000000E+00  0.00000000000E+00 -0.10125430278E+04  0.10125430329E+04  0.10100000352E+00 0. -1.
    10030    2    1    2    0    0  0.00000000000E+00  0.00000000000E+00 -0.30390973432E+03  0.17211763336E+04  0.16941330658E+04 0.  0.
        2    1    3    3  502    0  0.46103467203E+03  0.43996995582E+03 -0.71889054703E+03  0.96069253638E+03  0.25500000920E-02 0. -1.
       -2    1    3    3    0  502 -0.46103467203E+03 -0.43996995582E+03  0.41498081271E+03  0.76048379717E+03  0.25500000920E-02 0.  1.
</event>
<event>
 5   0  0.6615842E-05  0.1704340E+04  0.7818609E-02  0.8758893E-01
       -1   -1    0    0    0  501  0.00000000000E+00  0.00000000000E+00  0.44364066836E+03  0.44364066838E+03  0.50400001928E-02 0.  1.
        1   -1    0    0  501    0  0.00000000000E+00  0.00000000000E+00 -0.16368961227E+04  0.16368961227E+04  0.50400001928E-02 0. -1.
    10030    2    1    2    0    0  0.00000000000E+00  0.00000000000E+00 -0.11932554543E+04  0.20805367911E+04  0.17043399777E+04 0.  0.
        3    1    3    3  502    0  0.61281776955E+03 -0.53413926412E+03 -0.90867452183E+03  0.12192373719E+04  0.10100000352E+00 0. -1.
       -3    1    3    3    0  502 -0.61281776955E+03  0.53413926412E+03 -0.28458093249E+03  0.86129941919E+03  0.10100000352E+00 0.  1.
</event>
<event>
 5   0  0.6615842E-05  0.1679736E+04  0.7818609E-02  0.8773007E-01
       -1   -1    0    0    0  501  0.00000000000E+00  0.00000000000E+00  0.31572938851E+03  0.31572938855E+03  0.50400001928E-02 0.  1.
        1   -1    0    0  501    0  0.00000000000E+00  0.00000000000E+00 -0.22341231753E+04  0.22341231754E+04  0.50400001928E-02 0. -1.
    10030    2    1    2    0    0  0.00000000000E+00  0.00000000000E+00 -0.19183937868E+04  0.25498525639E+04  0.16797361032E+04 0.  0.
        3    1    3    3  502    0  0.27919696866E+03 -0.73919186671E+03 -0.13912902193E+04  0.16000137648E+04  0.10100000352E+00 0. -1.
       -3    1    3    3    0  502 -0.27919696866E+03  0.73919186671E+03 -0.52710356756E+03  0.94983879909E+03  0.10100000352E+00 0.  1.
</event>
<event>
 5   0  0.6601906E-05  0.1704227E+04  0.7818609E-02  0.8758957E-01
       -1   -1    0    0    0  501  0.00000000000E+00  0.00000000000E+00  0.59975426106E+03  0.59975426109E+03  0.50400001928E-02 0.  1.
        1   -1    0    0  501    0  0.00000000000E+00  0.00000000000E+00 -0.12106576492E+04  0.12106576493E+04  0.50400001928E-02 0. -1.
    10030    2    1    2    0    0  0.00000000000E+00  0.00000000000E+00 -0.61090338818E+03  0.18104119103E+04  0.17042266092E+04 0.  0.
        1    1    3    3  502    0 -0.82499523273E+03 -0.20395589082E+03 -0.23926438697E+03  0.88287178362E+03  0.50400001928E-02 0.  1.
       -1    1    3    3    0  502  0.82499523273E+03  0.20395589082E+03 -0.37163900121E+03  0.92754012672E+03  0.50400001928E-02 0. -1.
</event>
<event>
 5   0  0.1393870E-04  0.1699305E+04  0.7818609E-02  0.8761761E-01
        2   -1    0    0  501    0  0.00000000000E+00  0.00000000000E+00  0.36266500451E+03  0.36266500452E+03  0.25500000920E-02 0. -1.
       -2   -1    0    0    0  501  0.00000000000E+00  0.00000000000E+00 -0.19905684535E+04  0.19905684535E+04  0.25500000920E-02 0.  1.
    10030    2    1    2    0    0  0.00000000000E+00  0.00000000000E+00 -0.16279034490E+04  0.23532334580E+04  0.16993051723E+04 0.  0.
        3    1    3    3  502    0 -0.28696153639E+03  0.32259804943E+03  0.19942416571E+03  0.47559061485E+03  0.10100000352E+00 0. -1.
       -3    1    3    3    0  502  0.28696153639E+03 -0.32259804943E+03 -0.18273276147E+04  0.18776428431E+04  0.10100000352E+00 0.  1.
</event>
<event>
 5   0  0.4720875E-05  0.1697584E+04  0.7818609E-02  0.8762744E-01
       -3   -1    0    0    0  501  0.00000000000E+00  0.00000000000E+00  0.12599908241E+04  0.12599908282E+04  0.10100000352E+00 0.  1.
        3   -1    0    0  501    0  0.00000000000E+00  0.00000000000E+00 -0.57178809668E+03  0.57178810560E+03  0.10100000352E+00 0. -1.
    10030    2    1    2    0    0  0.00000000000E+00  0.00000000000E+00  0.68820272744E+03  0.18317789338E+04  0.16975838913E+04 0.  0.
        1    1    3    3  502    0 -0.33717868487E+03 -0.32458088258E+03  0.11081770567E+04  0.12029541155E+04  0.50400001928E-02 0.  1.
       -1    1    3    3    0  502  0.33717868487E+03  0.32458088258E+03 -0.41997432926E+03  0.62882481831E+03  0.50400001928E-02 0. -1.
</event>
<event>
 5   0  0.1393870E-04  0.1715320E+04  0.7818609E-02  0.8752675E-01
        2   -1    0    0  501    0  0.00000000000E+00  0.00000000000E+00  0.21465728892E+04  0.21465728892E+04  0.25500000920E-02 0.  1.
       -2   -1    0    0    0  501  0.00000000000E+00  0.00000000000E+00 -0.34267670631E+03  0.34267670632E+03  0.25500000920E-02 0. -1.
    10030    2    1    2    0    0  0.00000000000E+00  0.00000000000E+00  0.18038961829E+04  0.24892495955E+04  0.17153198274E+04 0.  0.
        3    1    3    3  502    0 -0.19854437333E+03  0.17980632490E+03 -0.28041777787E+03  0.38779417608E+03  0.10100000352E+00 0. -1.
       -3    1    3    3    0  502  0.19854437333E+03 -0.17980632490E+03  0.20843139608E+04  0.21014554195E+04  0.10100000352E+00 0.  1.
</event>
<event>
 5   0  0.1333546E-04  0.1699431E+04  0.7818609E-02  0.8761689E-01
        2   -1    0    0  501    0  0.00000000000E+00  0.00000000000E+00  0.12912629326E+04  0.12912629327E+04  0.25500000920E-02 0. -1.
       -2   -1    0    0    0  501  0.00000000000E+00  0.00000000000E+00 -0.55915497682E+03  0.55915497683E+03  0.25500000920E-02 0.  1.
    10030    2    1    2    0    0  0.00000000000E+00  0.00000000000E+00  0.73210795583E+03  0.18504179095E+04  0.16994306049E+04 0.  0.
        5    1    3    3  502    0  0.91537954681E+02 -0.10841651343E+03 -0.54614974549E+03  0.56430042710E+03  0.46999998093E+01 0.  1.
       -5    1    3    3    0  502 -0.91537954681E+02  0.10841651343E+03  0.12782577013E+04  0.12861174824E+04  0.46999998093E+01 0. -1.
</event>
<event>
 5   0  0.6539134E-05  0.1699287E+04  0.7818609E-02  0.8761771E-01
       -1   -1    0    0    0  501  0.00000000000E+00  0.00000000000E+00  0.25385547988E+03  0.25385547993E+03  0.50400001928E-02 0.  1.
        1   -1    0    0  501    0  0.00000000000E+00  0.00000000000E+00 -0.28437222382E+04  0.28437222382E+04  0.50400001928E-02 0. -1.
    10030    2    1    2    0    0  0.00000000000E+00  0.00000000000E+00 -0.25898667583E+04  0.30975777181E+04  0.16992874666E+04 0.  0.
        2    1    3    3  502    0 -0.57896864188E+03  0.40658720621E+03 -0.43726135891E+03  0.83169425906E+03  0.25500000920E-02 0.  1.
       -2    1    3    3    0  502  0.57896864188E+03 -0.40658720621E+03 -0.21526053994E+04  0.22658834590E+04  0.25500000920E-02 0. -1.
</event>
<event>
 5   0  0.6564887E-05  0.1698306E+04  0.7818609E-02  0.8762331E-01
        1   -1    0    0  501    0  0.00000000000E+00  0.00000000000E+00  0.20682334680E+04  0.20682334681E+04  0.50400001928E-02 0. -1.
       -1   -1    0    0    0  501  0.00000000000E+00  0.00000000000E+00 -0.34863599043E+03  0.34863599047E+03  0.50400001928E-02 0.  1.
    10030    2    1    2    0    0  0.00000000000E+00  0.00000000000E+00  0.17195974776E+04  0.24168694585E+04  0.16983057718E+04 0.  0.
        4    1    3    3  502    0 -0.58448629679E+03 -0.41774909746E+03  0.15040124752E+04  0.16667914321E+04  0.12699999809E+01 0. -1.
       -4    1    3    3    0  502  0.58448629679E+03  0.41774909746E+03  0.21558500238E+03  0.75007802641E+03  0.12699999809E+01 0.  1.
</event>
<event>
 5   0  0.1269175E-04  0.1701337E+04  0.7818609E-02  0.8760602E-01
       -2   -1    0    0    0  501  0.00000000000E+00  0.00000000000E+00  0.71038365843E+03  0.71038365844E+03  0.25500000920E-02 0.  1.
        2   -1    0    0  501    0  0.00000000000E+00  0.00000000000E+00 -0.10186569340E+04  0.10186569340E+04  0.25500000920E-02 0. -1.
    10030    2    1    2    0    0  0.00000000000E+00  0.00000000000E+00 -0.30827327553E+03  0.17290405924E+04  0.17013374027E+04 0.  0.
        2    1    3    3  502    0  0.32239033693E+03 -0.16218258384E+03  0.62873032979E+03  0.72494175452E+03  0.25500000920E-02 0.  1.
       -2    1    3    3    0  502 -0.32239033693E+03  0.16218258384E+03 -0.93700360532E+03  0.10040988379E+04  0.25500000920E-02 0. -1.
</event>
<event>
 5   0  0.1393870E-04  0.1700088E+04  0.7818609E-02  0.8761314E-01
       -2   -1    0    0    0  501  0.00000000000E+00  0.00000000000E+00  0.73693274737E+03  0.73693274737E+03  0.25500000920E-02 0. -1.
        2   -1    0    0  501    0  0.00000000000E+00  0.00000000000E+00 -0.98051668349E+03  0.98051668349E+03  0.25500000920E-02 0.  1.
    10030    2    1    2    0    0  0.00000000000E+00  0.00000000000E+00 -0.24358393612E+03  0.17174494309E+04  0.17000880606E+04 0.  0.
        3    1    3    3  502    0  0.24695310929E+03  0.89063737592E+02 -0.93853866131E+03  0.97456298745E+03  0.10100000352E+00 0.  1.
       -3    1    3    3    0  502 -0.24695310929E+03 -0.89063737592E+02  0.69495472519E+03  0.74288644341E+03  0.10100000352E+00 0. -1.
</event>
<event>
 5   0  0.6601906E-05  0.1699492E+04  0.7818609E-02  0.8761654E-01
        1   -1    0    0  501    0  0.00000000000E+00  0.00000000000E+00  0.21274260758E+04  0.21274260758E+04  0.50400001928E-02 0. -1.
       -1   -1    0    0    0  501  0.00000000000E+00  0.00000000000E+00 -0.33940926648E+03  0.33940926652E+03  0.50400001928E-02 0.  1.
    10030    2    1    2    0    0  0.00000000000E+00  0.00000000000E+00  0.17880168093E+04  0.24668353424E+04  0.16994918346E+04 0.  0.
        1    1    3    3  502    0 -0.55527767106E+03 -0.13557054063E+03 -0.18664064816E+02  0.57189248186E+03  0.50400001928E-02 0.  1.
       -1    1    3    3    0  502  0.55527767106E+03  0.13557054063E+03  0.18066808742E+04  0.18949428605E+04  0.50400001928E-02 0. -1.
</event>
<event>
 5   0  0.1333546E-04  0.1700237E+04  0.7818609E-02  0.8761229E-01
        2   -1    0    0  501    0  0.00000000000E+00  0.00000000000E+00  0.29190440372E+04  0.29190440372E+04  0.25500000920E-02 0. -1.
       -2   -1    0    0    0  501  0.00000000000E+00  0.00000000000E+00 -0.24758159163E+03  0.24758159165E+03  0.25500000920E-02 0.  1.
    10030    2    1    2    0    0  0.00000000000E+00  0.00000000000E+00  0.26714624456E+04  0.31666256289E+04  0.17002371232E+04 0.  0.
        5    1    3    3  502    0  0.75215089560E+02 -0.78598257338E+03  0.19224909284E+04  0.20783212877E+04  0.46999998093E+01 0. -1.
       -5    1    3    3    0  502 -0.75215089560E+02  0.78598257338E+03  0.74897151723E+03  0.10883043412E+04  0.46999998093E+01 0.  1.
</event>
<event>
 5   0  0.6564887E-05  0.1698699E+04  0.7818609E-02  0.8762107E-01
        1   -1    0    0  501    0  0.00000000000E+00  0.00000000000E+00  0.96695787032E+03  0.96695787033E+03  0.50400001928E-02 0. -1.
       -1   -1    0    0    0  501  0.00000000000E+00  0.00000000000E+00 -0.74604526020E+03  0.74604526022E+03  0.50400001928E-02 0.  1.
    10030    2    1    2    0    0  0.00000000000E+00  0.00000000000E+00  0.22091261012E+03  0.17130031305E+04  0.16986987208E+04 0.  0.
        4    1    3    3  502    0  0.77481584842E+03 -0.37272803808E+02 -0.23838130696E+03  0.81151470798E+03  0.12699999809E+01 0. -1.
       -4    1    3    3    0  502 -0.77481584842E+03  0.37272803808E+02  0.45929391707E+03  0.90148842257E+03  0.12699999809E+01 0.  1.
</event>
<event>
 5   0  0.6834837E-05  0.1703063E+04  0.7818609E-02  0.8759619E-01
       -1   -1    0    0    0  501  0.00000000000E+00  0.00000000000E+00  0.65270720314E+03  0.65270720316E+03  0.50400001928E-02 0. -1.
        1   -1    0    0  501    0  0.00000000000E+00  0.00000000000E+00 -0.11109208497E+04  0.11109208497E+04  0.50400001928E-02 0.  1.
    10030    2    1    2    0    0  0.00000000000E+00  0.00000000000E+00 -0.45821364656E+03  0.17636280529E+04  0.17030631706E+04 0.  0.
        5    1    3    3  502    0  0.41608881510E+03  0.24935775197E+03  0.49562017654E+03  0.69352046827E+03  0.46999998093E+01 0. -1.
       -5    1    3    3    0  502 -0.41608881510E+03 -0.24935775197E+03 -0.95383382310E+03  0.10701075846E+04  0.46999998093E+01 0.  1.
</event>
<event>
 5   0  0.1269175E-04  0.1703166E+04  0.7818609E-02  0.8759560E-01
        2   -1    0    0  501    0  0.00000000000E+00  0.00000000000E+00  0.13875311932E+04  0.13875311932E+04  0.25500000920E-02 0.  1.
       -2   -1    0    0    0  501  0.00000000000E+00  0.00000000000E+00 -0.52265056498E+03  0.52265056499E+03  0.25500000920E-02 0. -1.
    10030    2    1    2    0    0  0.00000000000E+00  0.00000000000E+00  0.86488062826E+03  0.19101817582E+04  0.17031664183E+04 0.  0.
        2    1    3    3  502    0  0.30763427543E+03 -0.39487737456E+03 -0.34022926868E+03  0.60524618431E+03  0.25500000920E-02 0. -1.
       -2    1    3    3    0  502 -0.30763427543E+03  0.39487737456E+03  0.12051098969E+04  0.13049355739E+04  0.25500000920E-02 0.  1.
</event>
<event>
 5   0  0.6601906E-05  0.1705365E+04  0.7818609E-02  0.8758310E-01
       -1   -1    0    0    0  501  0.00000000000E+00  0.00000000000E+00  0.46790972005E+03  0.46790972008E+03  0.50400001928E-02 0.  1.
        1   -1    0    0  501    0  0.00000000000E+00  0.00000000000E+00 -0.15538626391E+04  0.15538626391E+04  0.50400001928E-02 0. -1.
    10030    2    1    2    0    0  0.00000000000E+00  0.00000000000E+00 -0.10859529191E+04  0.20217723592E+04  0.17053649844E+04 0.  0.
        1    1    3    3  502    0 -0.67518968983E+02 -0.78353022833E+03 -0.15230846306E+03  0.80104700101E+03  0.50400001928E-02 0.  1.
       -1    1    3    3    0  502  0.67518968983E+02  0.78353022833E+03 -0.93364445601E+03  0.12207253582E+04  0.50400001928E-02 0. -1.
</event>
<event>
 5   0  0.6539134E-05  0.1699180E+04  0.7818609E-02  0.8761832E-01
       -1   -1    0    0    0  501  0.00000000000E+00  0.00000000000E+00  0.11955672172E+04  0.11955672172E+04  0.50400001928E-02 0.  1.
        1   -1    0    0  501    0  0.00000000000E+00  0.00000000000E+00 -0.60373285561E+03  0.60373285563E+03  0.50400001928E-02 0. -1.
    10030    2    1    2    0    0  0.00000000000E+00  0.00000000000E+00  0.59183436162E+03  0.17993000729E+04  0.16991800495E+04 0.  0.
        2    1    3    3  502    0 -0.33901460715E+02 -0.56675974688E+03  0.96516736717E+03  0.11197829997E+04  0.25500000920E-02 0.  1.
       -2    1    3    3    0  502  0.33901460715E+02  0.56675974688E+03 -0.37333300554E+03  0.67951707319E+03  0.25500000920E-02 0. -1.
</event>
<event>
 5   0  0.1333546E-04  0.1700536E+04  0.7818609E-02  0.8761059E-01
       -2   -1    0    0    0  501  0.00000000000E+00  0.00000000000E+00  0.44814756184E+03  0.44814756185E+03  0.25500000920E-02 0.  1.
        2   -1    0    0  501    0  0.00000000000E+00  0.00000000000E+00 -0.16132087423E+04  0.16132087423E+04  0.25500000920E-02 0. -1.
    10030    2    1    2    0    0  0.00000000000E+00  0.00000000000E+00 -0.11650611805E+04  0.20613563041E+04  0.17005358739E+04 0.  0.
        5    1    3    3  502    0 -0.83425273011E+03  0.89802674133E+02 -0.74913964913E+03  0.11248441856E+04  0.46999998093E+01 0.  1.
       -5    1    3    3    0  502  0.83425273011E+03 -0.89802674133E+02 -0.41592153132E+03  0.93651211855E+03  0.46999998093E+01 0. -1.
</event>
<event>
 5   0  0.1285639E-04  0.1690459E+04  0.7818609E-02  0.8766825E-01
       -2   -1    0    0    0  501  0.00000000000E+00  0.00000000000E+00  0.49238579351E+03  0.49238579351E+03  0.25500000920E-02 0.  1.
        2   -1    0    0  501    0  0.00000000000E+00  0.00000000000E+00 -0.14509203401E+04  0.14509203401E+04  0.25500000920E-02 0. -1.
    10030    2    1    2    0    0  0.00000000000E+00  0.00000000000E+00 -0.95853454658E+03  0.19433061336E+04  0.16904585922E+04 0.  0.
        4    1    3    3  502    0  0.64699809014E+03  0.21607015936E+03 -0.10530392488E+04  0.12546657383E+04  0.12699999809E+01 0. -1.
       -4    1    3    3    0  502 -0.64699809014E+03 -0.21607015936E+03  0.94504702225E+02  0.68864039531E+03  0.12699999809E+01 0.  1.
</event>
<event>
 5   0  0.6539134E-05  0.1694629E+04  0.7818609E-02  0.8764434E-01
       -1   -1    0    0    0  501  0.00000000000E+00  0.00000000000E+00  0.76628797762E+03  0.76628797763E+03  0.50400001928E-02 0. -1.
        1   -1    0    0  501    0  0.00000000000E+00  0.00000000000E+00 -0.93690877065E+03  0.93690877066E+03  0.50400001928E-02 0.  1.
    10030    2    1    2    0    0  0.00000000000E+00  0.00000000000E+00 -0.17062079303E+03  0.17031967483E+04  0.16946290769E+04 0.  0.
        2    1    3    3  502    0 -0.77527064540E+03  0.80334883962E+02 -0.41932123550E+03  0.88505850979E+03  0.25500000920E-02 0.  1.
       -2    1    3    3    0  502  0.77527064540E+03 -0.80334883962E+02  0.24870044248E+03  0.81813823850E+03  0.25500000920E-02 0. -1.
</event>
<event>
 5   0  0.6615842E-05  0.1697567E+04  0.7818609E-02  0.8762753E-01
       -1   -1    0    0    0  501  0.00000000000E+00  0.00000000000E+00  0.48051195692E+03  0.48051195694E+03  0.50400001928E-02 0.  1.
        1   -1    0    0  501    0  0.00000000000E+00  0.00000000000E+00 -0.14993029858E+04  0.14993029858E+04  0.50400001928E-02 0. -1.
    10030    2    1    2    0    0  0.00000000000E+00  0.00000000000E+00 -0.10187910289E+04  0.19798149428E+04  0.16975665074E+04 0.  0.
        3    1    3    3  502    0 -0.71734318109E+02 -0.67626502272E+03 -0.11017312438E+04  0.12947169332E+04  0.10100000352E+00 0. -1.
       -3    1    3    3    0  502  0.71734318109E+02  0.67626502272E+03  0.82940214839E+02  0.68509800962E+03  0.10100000352E+00 0.  1.
</event>
<event>
 5   0  0.6539134E-05  0.1672467E+04  0.7818609E-02  0.8777225E-01
       -1   -1    0    0    0  501  0.00000000000E+00  0.00000000000E+00  0.11499679972E+04  0.11499679972E+04  0.50400001928E-02 0.  1.
        1   -1    0    0  501    0  0.00000000000E+00  0.00000000000E+00 -0.60809197810E+03  0.60809197812E+03  0.50400001928E-02 0. -1.
    10030    2    1    2    0    0  0.00000000000E+00  0.00000000000E+00  0.54187601906E+03  0.17580599753E+04  0.16724668178E+04 0.  0.
        2    1    3    3  502    0  0.27646592389E+03  0.77865290659E+03  0.13569689601E+03  0.83734545058E+03  0.25500000920E-02 0. -1.
       -2    1    3    3    0  502 -0.27646592389E+03 -0.77865290659E+03  0.40617912304E+03  0.92071452471E+03  0.25500000920E-02 0.  1.
</event>
<event>
 5   0  0.1393870E-04  0.1710363E+04  0.7818609E-02  0.8755476E-01
        2   -1    0    0  501    0  0.00000000000E+00  0.00000000000E+00  0.63175689708E+03  0.63175689708E+03  0.25500000920E-02 0. -1.
       -2   -1    0    0    0  501  0.00000000000E+00  0.00000000000E+00 -0.11576218159E+04  0.11576218159E+04  0.25500000920E-02 0.  1.
    10030    2    1    2    0    0  0.00000000000E+00  0.00000000000E+00 -0.52586491886E+03  0.17893787130E+04  0.17103631970E+04 0.  0.
        3    1    3    3  502    0  0.58014426461E+03  0.12811213864E+03 -0.90645524852E+03  0.10838086619E+04  0.10100000352E+00 0.  1.
       -3    1    3    3    0  502 -0.58014426461E+03 -0.12811213864E+03  0.38059032965E+03  0.70557005114E+03  0.10100000352E+00 0. -1.
</event>
<event>
 5   0  0.4720875E-05  0.1700493E+04  0.7818609E-02  0.8761083E-01
        3   -1    0    0  501    0  0.00000000000E+00  0.00000000000E+00  0.69588734546E+03  0.69588735279E+03  0.10100000352E+00 0. -1.
       -3   -1    0    0    0  501  0.00000000000E+00  0.00000000000E+00 -0.10388449470E+04  0.10388449520E+04  0.10100000352E+00 0.  1.
    10030    2    1    2    0    0  0.00000000000E+00  0.00000000000E+00 -0.34295760159E+03  0.17347323047E+04  0.17004929440E+04 0.  0.
        4    1    3    3  502    0 -0.31340607059E+02  0.49506135286E+03  0.53296813707E+03  0.72809657654E+03  0.12699999809E+01 0. -1.
       -4    1    3    3    0  502  0.31340607059E+02 -0.49506135286E+03 -0.87592573866E+03  0.10066357282E+04  0.12699999809E+01 0.  1.
</event>
<event>
 5   0  0.6564887E-05  0.1689353E+04  0.7818609E-02  0.8767460E-01
       -1   -1    0    0    0  501  0.00000000000E+00  0.00000000000E+00  0.67936876535E+03  0.67936876537E+03  0.50400001928E-02 0.  1.
        1   -1    0    0  501    0  0.00000000000E+00  0.00000000000E+00 -0.10502076821E+04  0.10502076821E+04  0.50400001928E-02 0. -1.
    10030    2    1    2    0    0  0.00000000000E+00  0.00000000000E+00 -0.37083891677E+03  0.17295764475E+04  0.16893528896E+04 0.  0.
        4    1    3    3  502    0  0.58263977767E+03 -0.49134406548E+03  0.18737757449E+03  0.78485671911E+03  0.12699999809E+01 0.  1.
       -4    1    3    3    0  502 -0.58263977767E+03  0.49134406548E+03 -0.55821649127E+03  0.94471972840E+03  0.12699999809E+01 0. -1.
</event>
<event>
 5   0  0.6615842E-05  0.1701432E+04  0.7818609E-02  0.8760548E-01
        1   -1    0    0  501    0  0.00000000000E+00  0.00000000000E+00  0.11984071374E+04  0.11984071374E+04  0.50400001928E-02 0.  1.
       -1   -1    0    0    0  501  0.00000000000E+00  0.00000000000E+00 -0.60390001753E+03  0.60390001756E+03  0.50400001928E-02 0. -1.
    10030    2    1    2    0    0  0.00000000000E+00  0.00000000000E+00  0.59450711985E+03  0.18023071550E+04  0.17014324451E+04 0.  0.
        3    1    3    3  502    0 -0.62983673149E+03 -0.31887404055E+03  0.80010100421E+03  0.10670223002E+04  0.10100000352E+00 0.  1.
       -3    1    3    3    0  502  0.62983673149E+03  0.31887404055E+03 -0.20559388436E+03  0.73528485471E+03  0.10100000352E+00 0. -1.
</event>
<event>
 5   0  0.1255362E-04  0.1696687E+04  0.7818609E-02  0.8763256E-01
        2   -1    0    0  501    0  0.00000000000E+00  0.00000000000E+00  0.11061350110E+04  0.11061350110E+04  0.25500000920E-02 0.  1.
       -2   -1    0    0    0  501  0.00000000000E+00  0.00000000000E+00 -0.65063223301E+03  0.65063223301E+03  0.25500000920E-02 0. -1.
    10030    2    1    2    0    0  0.00000000000E+00  0.00000000000E+00  0.45550277801E+03  0.17567672440E+04  0.16966874694E+04 0.  0.
        1    1    3    3  502    0  0.23695376905E+03  0.79497745991E+03  0.41166668402E+03  0.92607003471E+03  0.50400001928E-02 0.  1.
       -1    1    3    3    0  502 -0.23695376905E+03 -0.79497745991E+03  0.43836093993E+02  0.83069720933E+03  0.50400001928E-02 0. -1.
</event>
<event>
 5   0  0.6601906E-05  0.1713960E+04  0.7818609E-02  0.8753442E-01
        1   -1    0    0  501    0  0.00000000000E+00  0.00000000000E+00  0.92393681930E+03  0.92393681932E+03  0.50400001928E-02 0. -1.
       -1   -1    0    0    0  501  0.00000000000E+00  0.00000000000E+00 -0.79487517742E+03  0.79487517743E+03  0.50400001928E-02 0.  1.
    10030    2    1    2    0    0  0.00000000000E+00  0.00000000000E+00  0.12906164188E+03  0.17188119968E+04  0.17139596765E+04 0.  0.
        1    1    3    3  502    0  0.11280687614E+03  0.78543285168E+03  0.38915125792E+03  0.88378100080E+03  0.50400001928E-02 0. -1.
       -1    1    3    3    0  502 -0.11280687614E+03 -0.78543285168E+03 -0.26008961603E+03  0.83503099595E+03  0.50400001928E-02 0.  1.
</event>
<event>
 5   0  0.1393870E-04  0.1689389E+04  0.7818609E-02  0.8767439E-01
       -2   -1    0    0    0  501  0.00000000000E+00  0.00000000000E+00  0.10455876340E+04  0.10455876340E+04  0.25500000920E-02 0. -1.
        2   -1    0    0  501    0  0.00000000000E+00  0.00000000000E+00 -0.68240002894E+03  0.68240002894E+03  0.25500000920E-02 0.  1.
    10030    2    1    2    0    0  0.00000000000E+00  0.00000000000E+00  0.36318760506E+03  0.17279876629E+04  0.16893892763E+04 0.  0.
        3    1    3    3  502    0 -0.25621997871E+03 -0.26620602269E+03  0.95855050127E+03  0.10272942119E+04  0.10100000352E+00 0. -1.
       -3    1    3    3    0  502  0.25621997871E+03  0.26620602269E+03 -0.59536289621E+03  0.70069345109E+03  0.10100000352E+00 0.  1.
</event>
<event>
 5   0  0.1393870E-04  0.1694616E+04  0.7818609E-02  0.8764441E-01
        2   -1    0    0  501    0  0.00000000000E+00  0.00000000000E+00  0.44061426680E+03  0.44061426681E+03  0.25500000920E-02 0.  1.
       -2   -1    0    0    0  501  0.00000000000E+00  0.00000000000E+00 -0.16293870721E+04  0.16293870721E+04  0.25500000920E-02 0. -1.
    10030    2    1    2    0    0  0.00000000000E+00  0.00000000000E+00 -0.11887728053E+04  0.20700013389E+04  0.16946164051E+04 0.  0.
        3    1    3    3  502    0 -0.78608611394E+02  0.45497127395E+03 -0.14622244313E+04  0.15333879064E+04  0.10100000352E+00 0. -1.
       -3    1    3    3    0  502  0.78608611394E+02 -0.45497127395E+03  0.27345162603E+03  0.53661343245E+03  0.10100000352E+00 0.  1.
</event>
<event>
 5   0  0.1285639E-04  0.1701214E+04  0.7818609E-02  0.8760672E-01
       -2   -1    0    0    0  501  0.00000000000E+00  0.00000000000E+00  0.54303447913E+03  0.54303447914E+03  0.25500000920E-02 0.  1.
        2   -1    0    0  501    0  0.00000000000E+00  0.00000000000E+00 -0.13323878621E+04  0.13323878621E+04  0.25500000920E-02 0. -1.
    10030    2    1    2    0    0  0.00000000000E+00  0.00000000000E+00 -0.78935338294E+03  0.18754223412E+04  0.17012143295E+04 0.  0.
        4    1    3    3  502    0  0.95449868811E+02  0.38222326523E+03  0.43639535650E+03  0.58791821031E+03  0.12699999809E+01 0.  1.
       -4    1    3    3    0  502 -0.95449868811E+02 -0.38222326523E+03 -0.12257487394E+04  0.12875041309E+04  0.12699999809E+01 0. -1.
</event>
<event>
 5   0  0.6615842E-05  0.1701379E+04  0.7818609E-02  0.8760578E-01
        1   -1    0    0  501    0  0.00000000000E+00  0.00000000000E+00  0.65342395782E+03  0.65342395784E+03  0.50400001928E-02 0. -1.
       -1   -1    0    0    0  501  0.00000000000E+00  0.00000000000E+00 -0.11075088174E+04  0.11075088175E+04  0.50400001928E-02 0.  1.
    10030    2    1    2    0    0  0.00000000000E+00  0.00000000000E+00 -0.45408485962E+03  0.17609327753E+04  0.17013791992E+04 0.  0.
        3    1    3    3  502    0 -0.32492186676E+03 -0.76921594662E+03 -0.39522770594E+03  0.92383566816E+03  0.10100000352E+00 0.  1.
       -3    1    3    3    0  502  0.32492186676E+03  0.76921594662E+03 -0.58857153679E+02  0.83709710713E+03  0.10100000352E+00 0. -1.
</event>
<event>
 5   0  0.1285639E-04  0.1712252E+04  0.7818609E-02  0.8754407E-01
        2   -1    0    0  501    0  0.00000000000E+00  0.00000000000E+00  0.79991011703E+03  0.79991011703E+03  0.25500000920E-02 0. -1.
       -2   -1    0    0    0  501  0.00000000000E+00  0.00000000000E+00 -0.91629291388E+03  0.91629291388E+03  0.25500000920E-02 0.  1.
    10030    2    1    2    0    0  0.00000000000E+00  0.00000000000E+00 -0.11638279685E+03  0.17162030309E+04  0.17122522851E+04 0.  0.
        4    1    3    3  502    0  0.26776338196E+03  0.28843182550E+03  0.70386558839E+03  0.80642329214E+03  0.12699999809E+01 0. -1.
       -4    1    3    3    0  502 -0.26776338196E+03 -0.28843182550E+03 -0.82024838524E+03  0.90977973877E+03  0.12699999809E+01 0.  1.
</event>
<event>
 5   0  0.6834837E-05  0.1706616E+04  0.7818609E-02  0.8757600E-01
       -1   -1    0    0    0  501  0.00000000000E+00  0.00000000000E+00  0.56536825475E+03  0.56536825477E+03  0.50400001928E-02 0. -1.
        1   -1    0    0  501    0  0.00000000000E+00  0.00000000000E+00 -0.12878945849E+04  0.12878945849E+04  0.50400001928E-02 0.  1.
    10030    2    1    2    0    0  0.00000000000E+00  0.00000000000E+00 -0.72252633012E+03  0.18532628396E+04  0.17066162003E+04 0.  0.
        5    1    3    3  502    0 -0.61840662459E+03 -0.45632291941E+03  0.41344316787E+02  0.76966798209E+03  0.46999998093E+01 0. -1.
       -5    1    3    3    0  502  0.61840662459E+03  0.45632291941E+03 -0.76387064691E+03  0.10835948576E+04  0.46999998093E+01 0.  1.
</event>
<event>
 5   0  0.1255362E-04  0.1730169E+04  0.7818609E-02  0.8744343E-01
       -2   -1    0    0    0  501  0.00000000000E+00  0.00000000000E+00  0.50319285627E+03  0.50319285628E+03  0.25500000920E-02 0. -1.
        2   -1    0    0  501    0  0.00000000000E+00  0.00000000000E+00 -0.14872449703E+04  0.14872449703E+04  0.25500000920E-02 0.  1.
    10030    2    1    2    0    0  0.00000000000E+00  0.00000000000E+00 -0.98405211405E+03  0.19904378266E+04  0.17301688294E+04 0.  0.
        1    1    3    3  502    0  0.30820883236E+03  0.46992063631E+03  0.26459735420E+03  0.62115203344E+03  0.50400001928E-02 0. -1.
       -1    1    3    3    0  502 -0.30820883236E+03 -0.46992063631E+03 -0.12486494683E+04  0.13692857932E+04  0.50400001928E-02 0.  1.
</event>
<event>
 5   0  0.6539134E-05  0.1706865E+04  0.7818609E-02  0.8757459E-01
       -1   -1    0    0    0  501  0.00000000000E+00  0.00000000000E+00  0.63998753855E+03  0.63998753857E+03  0.50400001928E-02 0.  1.
        1   -1    0    0  501    0  0.00000000000E+00  0.00000000000E+00 -0.11380642237E+04  0.11380642237E+04  0.50400001928E-02 0. -1.
    10030    2    1    2    0    0  0.00000000000E+00  0.00000000000E+00 -0.49807668517E+03  0.17780517623E+04  0.17068648702E+04 0.  0.
        2    1    3    3  502    0  0.29990705285E+03 -0.23094102509E+03  0.54776064823E+03  0.66582259286E+03  0.25500000920E-02 0.  1.
       -2    1    3    3    0  502 -0.29990705285E+03  0.23094102509E+03 -0.10458373334E+04  0.11122291694E+04  0.25500000920E-02 0. -1.
</event>
<event>
 5   0  0.1333546E-04  0.1697470E+04  0.7818609E-02  0.8762809E-01
        2   -1    0    0  501    0  0.00000000000E+00  0.00000000000E+00  0.14392292324E+04  0.14392292324E+04  0.25500000920E-02 0.  1.
       -2   -1    0    0    0  501  0.00000000000E+00  0.00000000000E+00 -0.50051174871E+03  0.50051174871E+03  0.25500000920E-02 0. -1.
    10030    2    1    2    0    0  0.00000000000E+00  0.00000000000E+00  0.93871748365E+03  0.19397409811E+04  0.16974700467E+04 0.  0.
        5    1    3    3  502    0 -0.11672277345E+03  0.63446070055E+03 -0.16086659360E+03  0.66487949082E+03  0.46999998093E+01 0.  1.
       -5    1    3    3    0  502  0.11672277345E+03 -0.63446070055E+03  0.10995840773E+04  0.12748614903E+04  0.46999998093E+01 0. -1.
</event>
<event>
 5   0  0.6615842E-05  0.1704541E+04  0.7818609E-02  0.8758779E-01
        1   -1    0    0  501    0  0.00000000000E+00  0.00000000000E+00  0.75354662774E+03  0.75354662776E+03  0.50400001928E-02 0. -1.
       -1   -1    0    0    0  501  0.00000000000E+00  0.00000000000E+00 -0.96392824631E+03  0.96392824632E+03  0.50400001928E-02 0.  1.
    10030    2    1    2    0    0  0.00000000000E+00  0.00000000000E+00 -0.21038161857E+03  0.17174748741E+04  0.17045408524E+04 0.  0.
        3    1    3    3  502    0 -0.32015191500E+03  0.75877033517E+03 -0.32625294611E+03  0.88581638349E+03  0.10100000352E+00 0.  1.
       -3    1    3    3    0  502  0.32015191500E+03 -0.75877033517E+03  0.11587132754E+03  0.83165849059E+03  0.10100000352E+00 0. -1.
</event>
<event>
 5   0  0.6615842E-05  0.1698819E+04  0.7818609E-02  0.8762038E-01
        1   -1    0    0  501    0  0.00000000000E+00  0.00000000000E+00  0.83902264025E+03  0.83902264027E+03  0.50400001928E-02 0. -1.
       -1   -1    0    0    0  501  0.00000000000E+00  0.00000000000E+00 -0.85992517379E+03  0.85992517380E+03  0.50400001928E-02 0.  1.
    10030    2    1    2    0    0  0.00000000000E+00  0.00000000000E+00 -0.20902533532E+02  0.16989478141E+04  0.16988192249E+04 0.  0.
        3    1    3    3  502    0  0.37153444812E+03  0.18647009075E+02  0.75322366470E+03  0.84007824418E+03  0.10100000352E+00 0. -1.
       -3    1    3    3    0  502 -0.37153444812E+03 -0.18647009075E+02 -0.77412619823E+03  0.85886956989E+03  0.10100000352E+00 0.  1.
</event>
<event>
 5   0  0.4720875E-05  0.1708424E+04  0.7818609E-02  0.8756574E-01
       -3   -1    0    0    0  501  0.00000000000E+00  0.00000000000E+00  0.85698822693E+03  0.85698823288E+03  0.10100000352E+00 0. -1.
        3   -1    0    0  501    0  0.00000000000E+00  0.00000000000E+00 -0.85144466293E+03  0.85144466892E+03  0.10100000352E+00 0.  1.
    10030    2    1    2    0    0  0.00000000000E+00  0.00000000000E+00  0.55435639993E+01  0.17084329018E+04  0.17084239078E+04 0.  0.
        3    1    3    3  502    0 -0.60879145628E+03 -0.48101359451E+03 -0.35454919555E+03  0.85305700724E+03  0.10100000352E+00 0.  1.
       -3    1    3    3    0  502  0.60879145628E+03  0.48101359451E+03  0.36009275955E+03  0.85537589457E+03  0.10100000352E+00 0. -1.
</event>
<event>
 5   0  0.6615842E-05  0.1717219E+04  0.7818609E-02  0.8751604E-01
       -1   -1    0    0    0  501  0.00000000000E+00  0.00000000000E+00  0.78821676134E+03  0.78821676135E+03  0.50400001928E-02 0. -1.
        1   -1    0    0  501    0  0.00000000000E+00  0.00000000000E+00 -0.93528830076E+03  0.93528830077E+03  0.50400001928E-02 0.  1.
    10030    2    1    2    0    0  0.00000000000E+00  0.00000000000E+00 -0.14707153942E+03  0.17235050621E+04  0.17172185829E+04 0.  0.
        3    1    3    3  502    0  0.32431225861E+03 -0.40641334211E+03 -0.75930841596E+03  0.92027144173E+03  0.10100000352E+00 0.  1.
       -3    1    3    3    0  502 -0.32431225861E+03  0.40641334211E+03  0.61223687654E+03  0.80323362039E+03  0.10100000352E+00 0. -1.
</event>
<event>
 5   0  0.6539134E-05  0.1700948E+04  0.7818609E-02  0.8760824E-01
       -1   -1    0    0    0  501  0.00000000000E+00  0.00000000000E+00  0.82609447622E+03  0.82609447624E+03  0.50400001928E-02 0.  1.
        1   -1    0    0  501    0  0.00000000000E+00  0.00000000000E+00 -0.87557287917E+03  0.87557287918E+03  0.50400001928E-02 0. -1.
    10030    2    1    2    0    0  0.00000000000E+00  0.00000000000E+00 -0.49478402944E+02  0.17016673554E+04  0.17009478758E+04 0.  0.
        2    1    3    3  502    0  0.46751377279E+03  0.11832602367E+03 -0.72556084878E+03  0.87121106566E+03  0.25500000920E-02 0. -1.
       -2    1    3    3    0  502 -0.46751377279E+03 -0.11832602367E+03  0.67608244584E+03  0.83045628976E+03  0.25500000920E-02 0.  1.
</event>
<event>
 5   0  0.6834837E-05  0.1692312E+04  0.7818609E-02  0.8765761E-01
       -1   -1    0    0    0  501  0.00000000000E+00  0.00000000000E+00  0.86033477125E+03  0.86033477127E+03  0.50400001928E-02 0. -1.
        1   -1    0    0  501    0  0.00000000000E+00  0.00000000000E+00 -0.83221078280E+03  0.83221078282E+03  0.50400001928E-02 0.  1.
    10030    2    1    2    0    0  0.00000000000E+00  0.00000000000E+00  0.28123988449E+02  0.16925455541E+04  0.16923118784E+04 0.  0.
        5    1    3    3  502    0  0.18460486645E+03  0.64159746850E+03 -0.50584775549E+03  0.83763375651E+03  0.46999998093E+01 0.  1.
       -5    1    3    3    0  502 -0.18460486645E+03 -0.64159746850E+03  0.53397174394E+03  0.85491179757E+03  0.46999998093E+01 0. -1.
</event>
<event>
 5   0  0.1333546E-04  0.1697677E+04  0.7818609E-02  0.8762691E-01
        2   -1    0    0  501    0  0.00000000000E+00  0.00000000000E+00  0.77541418785E+03  0.77541418785E+03  0.25500000920E-02 0. -1.
       -2   -1    0    0    0  501  0.00000000000E+00  0.00000000000E+00 -0.92921508321E+03  0.92921508322E+03  0.25500000920E-02 0.  1.
    10030    2    1    2    0    0  0.00000000000E+00  0.00000000000E+00 -0.15380089537E+03  0.17046292711E+04  0.16976767173E+04 0.  0.
        5    1    3    3  502    0  0.15278259678E+03 -0.81616093217E+03 -0.25381304159E+03  0.86827664898E+03  0.46999998093E+01 0.  1.
       -5    1    3    3    0  502 -0.15278259678E+03  0.81616093217E+03  0.10001214623E+03  0.83635262209E+03  0.46999998093E+01 0. -1.
</event>
<event>
 5   0  0.4720875E-05  0.1702025E+04  0.7818609E-02  0.8760210E-01
       -3   -1    0    0    0  501  0.00000000000E+00  0.00000000000E+00  0.38096369582E+03  0.38096370921E+03  0.10100000352E+00 0. -1.
        3   -1    0    0  501    0  0.00000000000E+00  0.00000000000E+00 -0.19010263279E+04  0.19010263306E+04  0.10100000352E+00 0.  1.
    10030    2    1    2    0    0  0.00000000000E+00  0.00000000000E+00 -0.15200626321E+04  0.22819900398E+04  0.17020247167E+04 0.  0.
        2    1    3    3  502    0 -0.66748278759E+03 -0.89022188472E+02 -0.62372330619E+02  0.67627548337E+03  0.25500000920E-02 0. -1.
       -2    1    3    3    0  502  0.66748278759E+03  0.89022188472E+02 -0.14576903015E+04  0.16057145564E+04  0.25500000920E-02 0.  1.
</event>
<event>
 5   0  0.1255362E-04  0.1705023E+04  0.7818609E-02  0.8758504E-01
        2   -1    0    0  501    0  0.00000000000E+00  0.00000000000E+00  0.99405377792E+03  0.99405377793E+03  0.25500000920E-02 0.  1.
       -2   -1    0    0    0  501  0.00000000000E+00  0.00000000000E+00 -0.73112364659E+03  0.73112364659E+03  0.25500000920E-02 0. -1.
    10030    2    1    2    0    0  0.00000000000E+00  0.00000000000E+00  0.26293013134E+03  0.17251774245E+04  0.17050234286E+04 0.  0.
        1    1    3    3  502    0  0.83928734825E+03 -0.83633605879E+02  0.59895898482E+01  0.84346529755E+03  0.50400001928E-02 0. -1.
       -1    1    3    3    0  502 -0.83928734825E+03  0.83633605879E+02  0.25694054149E+03  0.88171212697E+03  0.50400001928E-02 0.  1.
</event>
<event>
 5   0  0.6601906E-05  0.1739567E+04  0.7818609E-02  0.8739114E-01
       -1   -1    0    0    0  501  0.00000000000E+00  0.00000000000E+00  0.80346105447E+03  0.80346105449E+03  0.50400001928E-02 0.  1.
        1   -1    0    0  501    0  0.00000000000E+00  0.00000000000E+00 -0.94158052373E+03  0.94158052374E+03  0.50400001928E-02 0. -1.
    10030    2    1    2    0    0  0.00000000000E+00  0.00000000000E+00 -0.13811946926E+03  0.17450415782E+04  0.17395669352E+04 0.  0.
        1    1    3    3  502    0  0.21274298940E+02  0.55448038588E+03  0.60284083410E+03  0.81934007921E+03  0.50400001928E-02 0.  1.
       -1    1    3    3    0  502 -0.21274298940E+02 -0.55448038588E+03 -0.74096030335E+03  0.92570149902E+03  0.50400001928E-02 0. -1.
</event>
<event>
 5   0  0.1285639E-04  0.1709881E+04  0.7818609E-02  0.8755749E-01
        2   -1    0    0  501    0  0.00000000000E+00  0.00000000000E+00  0.15021469260E+04  0.15021469260E+04  0.25500000920E-02 0.  1.
       -2   -1    0    0    0  501  0.00000000000E+00  0.00000000000E+00 -0.48658551913E+03  0.48658551914E+03  0.25500000920E-02 0. -1.
    10030    2    1    2    0    0  0.00000000000E+00  0.00000000000E+00  0.10155614068E+04  0.19887324451E+04  0.17098806295E+04 0.  0.
        4    1    3    3  502    0 -0.71927631739E+03 -0.42748394268E+03  0.30359298810E+03  0.89009620678E+03  0.12699999809E+01 0. -1.
       -4    1    3    3    0  502  0.71927631739E+03  0.42748394268E+03  0.71196841874E+03  0.10986362383E+04  0.12699999809E+01 0.  1.
</event>
<event>
 5   0  0.1393870E-04  0.1701396E+04  0.7818609E-02  0.8760568E-01
       -2   -1    0    0    0  501  0.00000000000E+00  0.00000000000E+00  0.45862106139E+03  0.45862106140E+03  0.25500000920E-02 0. -1.
        2   -1    0    0  501    0  0.00000000000E+00  0.00000000000E+00 -0.15779638445E+04  0.15779638445E+04  0.25500000920E-02 0.  1.
    10030    2    1    2    0    0  0.00000000000E+00  0.00000000000E+00 -0.11193427831E+04  0.20365849059E+04  0.17013964303E+04 0.  0.
        3    1    3    3  502    0  0.48166002272E+02 -0.30046781948E+03 -0.15105858966E+04  0.15409317426E+04  0.10100000352E+00 0.  1.
       -3    1    3    3    0  502 -0.48166002272E+02  0.30046781948E+03  0.39124311341E+03  0.49565316332E+03  0.10100000352E+00 0. -1.
</event>
<event>
 5   0  0.6615842E-05  0.1700444E+04  0.7818609E-02  0.8761111E-01
        1   -1    0    0  501    0  0.00000000000E+00  0.00000000000E+00  0.10016009722E+04  0.10016009723E+04  0.50400001928E-02 0.  1.
       -1   -1    0    0    0  501  0.00000000000E+00  0.00000000000E+00 -0.72172214789E+03  0.72172214791E+03  0.50400001928E-02 0. -1.
    10030    2    1    2    0    0  0.00000000000E+00  0.00000000000E+00  0.27987882436E+03  0.17233231202E+04  0.17004441832E+04 0.  0.
        3    1    3    3  502    0 -0.42014523236E+03  0.73915115470E+03  0.14332336016E+03  0.86221113513E+03  0.10100000352E+00 0.  1.
       -3    1    3    3    0  502  0.42014523236E+03 -0.73915115470E+03  0.13655546419E+03  0.86111198504E+03  0.10100000352E+00 0. -1.
</event>
<event>
 5   0  0.6834837E-05  0.1677645E+04  0.7818609E-02  0.8774218E-01
        1   -1    0    0  501    0  0.00000000000E+00  0.00000000000E+00  0.69622319174E+03  0.69622319176E+03  0.50400001928E-02 0.  1.
       -1   -1    0    0    0  501  0.00000000000E+00  0.00000000000E+00 -0.10106288218E+04  0.10106288218E+04  0.50400001928E-02 0. -1.
    10030    2    1    2    0    0  0.00000000000E+00  0.00000000000E+00 -0.31440563009E+03  0.17068520136E+04  0.16776450447E+04 0.  0.
        5    1    3    3  502    0  0.80959624348E+03 -0.16256793628E+03 -0.30716884715E+03  0.88105005648E+03  0.46999998093E+01 0.  1.
       -5    1    3    3    0  502 -0.80959624348E+03  0.16256793628E+03 -0.72367829487E+01  0.82580195712E+03  0.46999998093E+01 0. -1.
</event>
<event>
 5   0  0.6564887E-05  0.1698207E+04  0.7818609E-02  0.8762387E-01
       -1   -1    0    0    0  501  0.00000000000E+00  0.00000000000E+00  0.36194948612E+03  0.36194948616E+03  0.50400001928E-02 0.  1.
        1   -1    0    0  501    0  0.00000000000E+00  0.00000000000E+00 -0.19919272300E+04  0.19919272300E+04  0.50400001928E-02 0. -1.
    10030    2    1    2    0    0  0.00000000000E+00  0.00000000000E+00 -0.16299777439E+04  0.23538767162E+04  0.16982073340E+04 0.  0.
        4    1    3    3  502    0 -0.70339774771E+03 -0.36830684390E+03 -0.12321023834E+04  0.14657749550E+04  0.12699999809E+01 0. -1.
       -4    1    3    3    0  502  0.70339774771E+03  0.36830684390E+03 -0.39787536051E+03  0.88810176114E+03  0.12699999809E+01 0.  1.
</event>
<event>
 5   0  0.1333546E-04  0.1698528E+04  0.7818609E-02  0.8762204E-01
       -2   -1    0    0    0  501  0.00000000000E+00  0.00000000000E+00  0.62052184062E+03  0.62052184062E+03  0.25500000920E-02 0.  1.
        2   -1    0    0  501    0  0.00000000000E+00  0.00000000000E+00 -0.11623270769E+04  0.11623270769E+04  0.25500000920E-02 0. -1.
    10030    2    1    2    0    0  0.00000000000E+00  0.00000000000E+00 -0.54180523628E+03  0.17828489175E+04  0.16985279947E+04 0.  0.
        5    1    3    3  502    0 -0.81098847929E+03 -0.11343628498E+03 -0.50714737470E+03  0.96321890241E+03  0.46999998093E+01 0. -1.
       -5    1    3    3    0  502  0.81098847929E+03  0.11343628498E+03 -0.34657861576E+02  0.81963001511E+03  0.46999998093E+01 0.  1.
</event>
<event>
 5   0  0.1269175E-04  0.1698057E+04  0.7818609E-02  0.8762473E-01
        2   -1    0    0  501    0  0.00000000000E+00  0.00000000000E+00  0.18736874815E+04  0.18736874815E+04  0.25500000920E-02 0.  1.
       -2   -1    0    0    0  501  0.00000000000E+00  0.00000000000E+00 -0.38472233005E+03  0.38472233006E+03  0.25500000920E-02 0. -1.
    10030    2    1    2    0    0  0.00000000000E+00  0.00000000000E+00  0.14889651515E+04  0.22584098116E+04  0.16980570234E+04 0.  0.
        2    1    3    3  502    0  0.30778438319E+02 -0.22060053271E+03  0.18341365048E+04  0.18476116003E+04  0.25500000920E-02 0.  1.
       -2    1    3    3    0  502 -0.30778438319E+02  0.22060053271E+03 -0.34517135328E+03  0.41079821133E+03  0.25500000920E-02 0. -1.
</event>
<event>
 5   0  0.1393870E-04  0.1710018E+04  0.7818609E-02  0.8755671E-01
        2   -1    0    0  501    0  0.00000000000E+00  0.00000000000E+00  0.16584202608E+04  0.16584202608E+04  0.25500000920E-02 0.  1.
       -2   -1    0    0    0  501  0.00000000000E+00  0.00000000000E+00 -0.44080535447E+03  0.44080535448E+03  0.25500000920E-02 0. -1.
    10030    2    1    2    0    0  0.00000000000E+00  0.00000000000E+00  0.12176149063E+04  0.20992256153E+04  0.17100181647E+04 0.  0.
        3    1    3    3  502    0 -0.43581425420E+03 -0.50899699045E+03 -0.43128463169E+02  0.67147008495E+03  0.10100000352E+00 0. -1.
       -3    1    3    3    0  502  0.43581425420E+03  0.50899699045E+03  0.12607433695E+04  0.14277555303E+04  0.10100000352E+00 0.  1.
</event>
<event>
 5   0  0.1269175E-04  0.1709957E+04  0.7818609E-02  0.8755706E-01
        2   -1    0    0  501    0  0.00000000000E+00  0.00000000000E+00  0.10334889075E+04  0.10334889075E+04  0.25500000920E-02 0.  1.
       -2   -1    0    0    0  501  0.00000000000E+00  0.00000000000E+00 -0.70730175635E+03  0.70730175635E+03  0.25500000920E-02 0. -1.
    10030    2    1    2    0    0  0.00000000000E+00  0.00000000000E+00  0.32618715119E+03  0.17407906639E+04  0.17099573322E+04 0.  0.
        2    1    3    3  502    0 -0.30106946877E+03 -0.80014413621E+03  0.15217375768E+03  0.86834919029E+03  0.25500000920E-02 0. -1.
       -2    1    3    3    0  502  0.30106946877E+03  0.80014413621E+03  0.17401339352E+03  0.87244147361E+03  0.25500000920E-02 0.  1.
</event>
<event>
 5   0  0.1393870E-04  0.1684968E+04  0.7818609E-02  0.8769984E-01
        2   -1    0    0  501    0  0.00000000000E+00  0.00000000000E+00  0.82303906928E+03  0.82303906929E+03  0.25500000920E-02 0.  1.
       -2   -1    0    0    0  501  0.00000000000E+00  0.00000000000E+00 -0.86238877925E+03  0.86238877925E+03  0.25500000920E-02 0. -1.
    10030    2    1    2    0    0  0.00000000000E+00  0.00000000000E+00 -0.39349709966E+02  0.16854278485E+04  0.16849684368E+04 0.  0.
        3    1    3    3  502    0 -0.68356010516E+03 -0.47598350458E+03 -0.14606172532E+03  0.84566468048E+03  0.10100000352E+00 0. -1.
       -3    1    3    3    0  502  0.68356010516E+03  0.47598350458E+03  0.10671201536E+03  0.83976316806E+03  0.10100000352E+00 0.  1.
</event>
<event>
 5   0  0.1333546E-04  0.1702225E+04  0.7818609E-02  0.8760096E-01
        2   -1    0    0  501    0  0.00000000000E+00  0.00000000000E+00  0.11079367425E+04  0.11079367425E+04  0.25500000920E-02 0. -1.
       -2   -1    0    0    0  501  0.00000000000E+00  0.00000000000E+00 -0.65382114911E+03  0.65382114912E+03  0.25500000920E-02 0.  1.
    10030    2    1    2    0    0  0.00000000000E+00  0.00000000000E+00  0.45411559336E+03  0.17617578916E+04  0.17022249841E+04 0.  0.
        5    1    3    3  502    0  0.74613535129E+03 -0.34534687160E+03  0.45472366251E+03  0.93956272990E+03  0.46999998093E+01 0. -1.
       -5    1    3    3    0  502 -0.74613535129E+03  0.34534687160E+03 -0.60806915424E+00  0.82219516169E+03  0.46999998093E+01 0.  1.
</event>
<event>
 5   0  0.1285639E-04  0.1693164E+04  0.7818609E-02  0.8765273E-01
        2   -1    0    0  501    0  0.00000000000E+00  0.00000000000E+00  0.10327037906E+04  0.10327037906E+04  0.25500000920E-02 0. -1.
       -2   -1    0    0    0  501  0.00000000000E+00  0.00000000000E+00 -0.69400453836E+03  0.69400453837E+03  0.25500000920E-02 0.  1.
    10030    2    1    2    0    0  0.00000000000E+00  0.00000000000E+00  0.33869925221E+03  0.17267083289E+04  0.16931640410E+04 0.  0.
        4    1    3    3  502    0  0.77239355465E+03 -0.34298470285E+03  0.22002507831E+03  0.87329431330E+03  0.12699999809E+01 0. -1.
       -4    1    3    3    0  502 -0.77239355465E+03  0.34298470285E+03  0.11867417390E+03  0.85341401565E+03  0.12699999809E+01 0.  1.
</event>
<event>
 5   0  0.1285639E-04  0.1701450E+04  0.7818609E-02  0.8760538E-01
       -2   -1    0    0    0  501  0.00000000000E+00  0.00000000000E+00  0.68330243281E+03  0.68330243281E+03  0.25500000920E-02 0.  1.
        2   -1    0    0  501    0  0.00000000000E+00  0.00000000000E+00 -0.10591699027E+04  0.10591699027E+04  0.25500000920E-02 0. -1.
    10030    2    1    2    0    0  0.00000000000E+00  0.00000000000E+00 -0.37586746988E+03  0.17424723355E+04  0.17014504063E+04 0.  0.
        4    1    3    3  502    0 -0.29870144257E+03  0.58895326598E+03  0.36132085611E+03  0.75275685003E+03  0.12699999809E+01 0.  1.
       -4    1    3    3    0  502  0.29870144257E+03 -0.58895326598E+03 -0.73718832600E+03  0.98971548547E+03  0.12699999809E+01 0. -1.
</event>
<event>
 5   0  0.6601906E-05  0.1702557E+04  0.7818609E-02  0.8759907E-01
       -1   -1    0    0    0  501  0.00000000000E+00  0.00000000000E+00  0.86900276603E+03  0.86900276604E+03  0.50400001928E-02 0.  1.
        1   -1    0    0  501    0  0.00000000000E+00  0.00000000000E+00 -0.83391600274E+03  0.83391600275E+03  0.50400001928E-02 0. -1.
    10030    2    1    2    0    0  0.00000000000E+00  0.00000000000E+00  0.35086763291E+02  0.17029187688E+04  0.17025572684E+04 0.  0.
        1    1    3    3  502    0 -0.12508001876E+03  0.79103474664E+03 -0.27112547138E+03  0.84551168102E+03  0.50400001928E-02 0.  1.
       -1    1    3    3    0  502  0.12508001876E+03 -0.79103474664E+03  0.30621223467E+03  0.85740708778E+03  0.50400001928E-02 0. -1.
</event>
<event>
 5   0  0.1269175E-04  0.1700006E+04  0.7818609E-02  0.8761361E-01
       -2   -1    0    0    0  501  0.00000000000E+00  0.00000000000E+00  0.60278279916E+03  0.60278279917E+03  0.25500000920E-02 0. -1.
        2   -1    0    0  501    0  0.00000000000E+00  0.00000000000E+00 -0.11986157876E+04  0.11986157876E+04  0.25500000920E-02 0.  1.
    10030    2    1    2    0    0  0.00000000000E+00  0.00000000000E+00 -0.59583298841E+03  0.18013985867E+04  0.17000058583E+04 0.  0.
        2    1    3    3  502    0  0.44058960139E+03  0.34575337796E+02 -0.10673004348E+04  0.11551817471E+04  0.25500000920E-02 0.  1.
       -2    1    3    3    0  502 -0.44058960139E+03 -0.34575337796E+02  0.47146744635E+03  0.64621683962E+03  0.25500000920E-02 0. -1.
</event>
<event>
 5   0  0.6834837E-05  0.1698243E+04  0.7818609E-02  0.8762367E-01
       -1   -1    0    0    0  501  0.00000000000E+00  0.00000000000E+00  0.82102674651E+03  0.82102674653E+03  0.50400001928E-02 0.  1.
        1   -1    0    0  501    0  0.00000000000E+00  0.00000000000E+00 -0.87817807878E+03  0.87817807880E+03  0.50400001928E-02 0. -1.
    10030    2    1    2    0    0  0.00000000000E+00  0.00000000000E+00 -0.57151332271E+02  0.16992048253E+04  0.16982434347E+04 0.  0.
        5    1    3    3  502    0  0.15029620243E+03 -0.46608910592E+03  0.66547226241E+03  0.82625869142E+03  0.46999998093E+01 0.  1.
       -5    1    3    3    0  502 -0.15029620243E+03  0.46608910592E+03 -0.72262359468E+03  0.87294613391E+03  0.46999998093E+01 0. -1.
</event>
<event>
 5   0  0.6564887E-05  0.1689046E+04  0.7818609E-02  0.8767636E-01
        1   -1    0    0  501    0  0.00000000000E+00  0.00000000000E+00  0.11073761159E+04  0.11073761159E+04  0.50400001928E-02 0. -1.
       -1   -1    0    0    0  501  0.00000000000E+00  0.00000000000E+00 -0.64406251148E+03  0.64406251150E+03  0.50400001928E-02 0.  1.
    10030    2    1    2    0    0  0.00000000000E+00  0.00000000000E+00  0.46331360444E+03  0.17514386274E+04  0.16890464084E+04 0.  0.
        4    1    3    3  502    0 -0.34997882209E+03 -0.16821264579E+03  0.10093178468E+04  0.10814364516E+04  0.12699999809E+01 0. -1.
       -4    1    3    3    0  502  0.34997882209E+03  0.16821264579E+03 -0.54600424232E+03  0.67000217585E+03  0.12699999809E+01 0.  1.
</event>
<event>
 5   0  0.6834837E-05  0.1701539E+04  0.7818609E-02  0.8760487E-01
       -1   -1    0    0    0  501  0.00000000000E+00  0.00000000000E+00  0.28562972231E+03  0.28562972235E+03  0.50400001928E-02 0.  1.
        1   -1    0    0  501    0  0.00000000000E+00  0.00000000000E+00 -0.25340794931E+04  0.25340794931E+04  0.50400001928E-02 0. -1.
    10030    2    1    2    0    0  0.00000000000E+00  0.00000000000E+00 -0.22484497708E+04  0.28197092154E+04  0.17015386237E+04 0.  0.
        5    1    3    3  502    0 -0.21219291393E+02  0.82400715016E+03 -0.14732052178E+04  0.16881332133E+04  0.46999998093E+01 0. -1.
       -5    1    3    3    0  502  0.21219291393E+02 -0.82400715016E+03 -0.77524455294E+03  0.11315760022E+04  0.46999998093E+01 0.  1.
</event>
<event>
 5   0  0.1255362E-04  0.1692181E+04  0.7818609E-02  0.8765836E-01
        2   -1    0    0  501    0  0.00000000000E+00  0.00000000000E+00  0.15817881088E+04  0.15817881088E+04  0.25500000920E-02 0.  1.
       -2   -1    0    0    0  501  0.00000000000E+00  0.00000000000E+00 -0.45256964033E+03  0.45256964033E+03  0.25500000920E-02 0. -1.
    10030    2    1    2    0    0  0.00000000000E+00  0.00000000000E+00  0.11292184685E+04  0.20343577491E+04  0.16921811670E+04 0.  0.
        1    1    3    3  502    0 -0.78828138781E+03 -0.24850173715E+03  0.34711673257E+03  0.89645450849E+03  0.50400001928E-02 0.  1.
       -1    1    3    3    0  502  0.78828138781E+03  0.24850173715E+03  0.78210173591E+03  0.11379032406E+04  0.50400001928E-02 0. -1.
</event>
<event>
 5   0  0.1393870E-04  0.1698493E+04  0.7818609E-02  0.8762225E-01
        2   -1    0    0  501    0  0.00000000000E+00  0.00000000000E+00  0.70870573677E+03  0.70870573678E+03  0.25500000920E-02 0. -1.
       -2   -1    0    0    0  501  0.00000000000E+00  0.00000000000E+00 -0.10176568879E+04  0.10176568879E+04  0.25500000920E-02 0.  1.
    10030    2    1    2    0    0  0.00000000000E+00  0.00000000000E+00 -0.30895115113E+03  0.17263626247E+04  0.16984925958E+04 0.  0.
        3    1    3    3  502    0  0.89060392360E+02 -0.63779571061E+03 -0.71718804787E+03  0.96388475876E+03  0.10100000352E+00 0.  1.
       -3    1    3    3    0  502 -0.89060392360E+02  0.63779571061E+03  0.40823689675E+03  0.76247786592E+03  0.10100000352E+00 0. -1.
</event>
<event>
 5   0  0.1333546E-04  0.1704076E+04  0.7818609E-02  0.8759043E-01
        2   -1    0    0  501    0  0.00000000000E+00  0.00000000000E+00  0.75840699256E+03  0.75840699257E+03  0.25500000920E-02 0. -1.
       -2   -1    0    0    0  501  0.00000000000E+00  0.00000000000E+00 -0.95722888912E+03  0.95722888912E+03  0.25500000920E-02 0.  1.
    10030    2    1    2    0    0  0.00000000000E+00  0.00000000000E+00 -0.19882189655E+03  0.17156358817E+04  0.17040763868E+04 0.  0.
        5    1    3    3  502    0 -0.28091845656E+03 -0.44797682141E+02 -0.90799343324E+03  0.95152308242E+03  0.46999998093E+01 0.  1.
       -5    1    3    3    0  502  0.28091845656E+03  0.44797682141E+02  0.70917153669E+03  0.76411279927E+03  0.46999998093E+01 0. -1.
</event>
<event>
 5   0  0.6834837E-05  0.1686312E+04  0.7818609E-02  0.8769210E-01
       -1   -1    0    0    0  501  0.00000000000E+00  0.00000000000E+00  0.68205104872E+03  0.68205104873E+03  0.50400001928E-02 0.  1.
        1   -1    0    0  501    0  0.00000000000E+00  0.00000000000E+00 -0.10423144712E+04  0.10423144712E+04  0.50400001928E-02 0. -1.
    10030    2    1    2    0    0  0.00000000000E+00  0.00000000000E+00 -0.36026342250E+03  0.17243655200E+04  0.16863115705E+04 0.  0.
        5    1    3    3  502    0 -0.54016920349E+03  0.64672449183E+03 -0.21001885294E+03  0.86842693723E+03  0.46999998093E+01 0.  1.
       -5    1    3    3    0  502  0.54016920349E+03 -0.64672449183E+03 -0.15024456956E+03  0.85593858273E+03  0.46999998093E+01 0. -1.
</event>
<event>
 5   0  0.1393870E-04  0.1699151E+04  0.7818609E-02  0.8761849E-01
        2   -1    0    0  501    0  0.00000000000E+00  0.00000000000E+00  0.12341469027E+04  0.12341469027E+04  0.25500000920E-02 0.  1.
       -2   -1    0    0    0  501  0.00000000000E+00  0.00000000000E+00 -0.58484007049E+03  0.58484007050E+03  0.25500000920E-02 0. -1.
    10030    2    1    2    0    0  0.00000000000E+00  0.00000000000E+00  0.64930683222E+03  0.18189869732E+04  0.16991510369E+04 0.  0.
        3    1    3    3  502    0 -0.21516353715E+03 -0.77084584040E+03  0.19450156060E+02  0.80054792246E+03  0.10100000352E+00 0. -1.
       -3    1    3    3    0  502  0.21516353715E+03  0.77084584040E+03  0.62985667616E+03  0.10184390507E+04  0.10100000352E+00 0.  1.
</event>
<event>
 5   0  0.1285639E-04  0.1731876E+04  0.7818609E-02  0.8743390E-01
        2   -1    0    0  501    0  0.00000000000E+00  0.00000000000E+00  0.16404184509E+04  0.16404184509E+04  0.25500000920E-02 0.  1.
       -2   -1    0    0    0  501  0.00000000000E+00  0.00000000000E+00 -0.45710809597E+03  0.45710809598E+03  0.25500000920E-02 0. -1.
    10030    2    1    2    0    0  0.00000000000E+00  0.00000000000E+00  0.11833103549E+04  0.20975265469E+04  0.17318759248E+04 0.  0.
        4    1    3    3  502    0  0.67653119509E+03  0.23609737060E+03  0.11805314910E+04  0.13809752498E+04  0.12699999809E+01 0.  1.
       -4    1    3    3    0  502 -0.67653119509E+03 -0.23609737060E+03  0.27788638754E+01  0.71655129706E+03  0.12699999809E+01 0. -1.
</event>
<event>
 5   0  0.1333546E-04  0.1693323E+04  0.7818609E-02  0.8765182E-01
       -2   -1    0    0    0  501  0.00000000000E+00  0.00000000000E+00  0.46603174465E+03  0.46603174465E+03  0.25500000920E-02 0. -1.
        2   -1    0    0  501    0  0.00000000000E+00  0.00000000000E+00 -0.15381688553E+04  0.15381688553E+04  0.25500000920E-02 0.  1.
    10030    2    1    2    0    0  0.00000000000E+00  0.00000000000E+00 -0.10721371107E+04  0.20042006000E+04  0.16933227870E+04 0.  0.
        5    1    3    3  502    0  0.71265261541E+03  0.98402626272E+02 -0.10644016198E+04  0.12847294366E+04  0.46999998093E+01 0.  1.
       -5    1    3    3    0  502 -0.71265261541E+03 -0.98402626272E+02 -0.77354908935E+01  0.71947116337E+03  0.46999998093E+01 0. -1.
</event>
<event>
 5   0  0.6834837E-05  0.1705279E+04  0.7818609E-02  0.8758359E-01
        1   -1    0    0  501    0  0.00000000000E+00  0.00000000000E+00  0.21007341340E+04  0.21007341341E+04  0.50400001928E-02 0. -1.
       -1   -1    0    0    0  501  0.00000000000E+00  0.00000000000E+00 -0.34606661124E+03  0.34606661128E+03  0.50400001928E-02 0.  1.
    10030    2    1    2    0    0  0.00000000000E+00  0.00000000000E+00  0.17546675228E+04  0.24468007453E+04  0.17052787959E+04 0.  0.
        5    1    3    3  502    0  0.41622702025E+03  0.40317113853E+03  0.17747450074E+04  0.18669584437E+04  0.46999998093E+01 0. -1.
       -5    1    3    3    0  502 -0.41622702025E+03 -0.40317113853E+03 -0.20077484611E+02  0.57984230159E+03  0.46999998093E+01 0.  1.
</event>
<event>
 5   0  0.1393870E-04  0.1700833E+04  0.7818609E-02  0.8760889E-01
        2   -1    0    0  501    0  0.00000000000E+00  0.00000000000E+00  0.77826011423E+03  0.77826011423E+03  0.25500000920E-02 0.  1.
       -2   -1    0    0    0  501  0.00000000000E+00  0.00000000000E+00 -0.92926287204E+03  0.92926287205E+03  0.25500000920E-02 0. -1.
    10030    2    1    2    0    0  0.00000000000E+00  0.00000000000E+00 -0.15100275782E+03  0.17075229863E+04  0.17008330064E+04 0.  0.
        3    1    3    3  502    0 -0.11027349644E+03  0.10902139943E+03 -0.91494955070E+03  0.92799709055E+03  0.10100000352E+00 0. -1.
       -3    1    3    3    0  502  0.11027349644E+03 -0.10902139943E+03  0.76394679288E+03  0.77952589572E+03  0.10100000352E+00 0.  1.
</event>
<event>
 5   0  0.1255362E-04  0.1714975E+04  0.7818609E-02  0.8752869E-01
        2   -1    0    0  501    0  0.00000000000E+00  0.00000000000E+00  0.23498966311E+04  0.23498966311E+04  0.25500000920E-02 0.  1.
       -2   -1    0    0    0  501  0.00000000000E+00  0.00000000000E+00 -0.31290103980E+03  0.31290103981E+03  0.25500000920E-02 0. -1.
    10030    2    1    2    0    0  0.00000000000E+00  0.00000000000E+00  0.20369955913E+04  0.26627976709E+04  0.17149753343E+04 0.  0.
        1    1    3    3  502    0 -0.11188580141E+03 -0.73437004137E+03  0.35343962132E+03  0.82264047808E+03  0.50400001928E-02 0. -1.
       -1    1    3    3    0  502  0.11188580141E+03  0.73437004137E+03  0.16835559700E+04  0.18401571928E+04  0.50400001928E-02 0.  1.
</event>
<event>
 5   0  0.1285639E-04  0.1697394E+04  0.7818609E-02  0.8762852E-01
       -2   -1    0    0    0  501  0.00000000000E+00  0.00000000000E+00  0.39067772614E+03  0.39067772615E+03  0.25500000920E-02 0.  1.
        2   -1    0    0  501    0  0.00000000000E+00  0.00000000000E+00 -0.18436857476E+04  0.18436857476E+04  0.25500000920E-02 0. -1.
    10030    2    1    2    0    0  0.00000000000E+00  0.00000000000E+00 -0.14530080215E+04  0.22343634738E+04  0.16973944216E+04 0.  0.
        4    1    3    3  502    0 -0.64160890473E+03  0.49527447467E+03 -0.10577601757E+04  0.13325978366E+04  0.12699999809E+01 0. -1.
       -4    1    3    3    0  502  0.64160890473E+03 -0.49527447467E+03 -0.39524784577E+03  0.90176563717E+03  0.12699999809E+01 0.  1.
</event>
<event>
 5   0  0.1255362E-04  0.1701250E+04  0.7818609E-02  0.8760652E-01
        2   -1    0    0  501    0  0.00000000000E+00  0.00000000000E+00  0.98458098082E+03  0.98458098083E+03  0.25500000920E-02 0.  1.
       -2   -1    0    0    0  501  0.00000000000E+00  0.00000000000E+00 -0.73489400018E+03  0.73489400019E+03  0.25500000920E-02 0. -1.
    10030    2    1    2    0    0  0.00000000000E+00  0.00000000000E+00  0.24968698064E+03  0.17194749810E+04  0.17012497236E+04 0.  0.
        1    1    3    3  502    0 -0.46103580319E+03  0.50399083951E+02 -0.59586535542E+03  0.75508251291E+03  0.50400001928E-02 0. -1.
       -1    1    3    3    0  502  0.46103580319E+03 -0.50399083951E+02  0.84555233606E+03  0.96439246810E+03  0.50400001928E-02 0.  1.
</event>
<event>
 5   0  0.1393870E-04  0.1795677E+04  0.7818609E-02  0.8708602E-01
       -2   -1    0    0    0  501  0.00000000000E+00  0.00000000000E+00  0.66289507622E+03  0.66289507623E+03  0.25500000920E-02 0. -1.
        2   -1    0    0  501    0  0.00000000000E+00  0.00000000000E+00 -0.12160504208E+04  0.12160504208E+04  0.25500000920E-02 0.  1.
    10030    2    1    2    0    0  0.00000000000E+00  0.00000000000E+00 -0.55315534461E+03  0.18789454971E+04  0.17956768489E+04 0.  0.
        3    1    3    3  502    0  0.18932935127E+03  0.62867532841E+03 -0.91737725487E+03  0.11281220279E+04  0.10100000352E+00 0.  1.
       -3    1    3    3    0  502 -0.18932935127E+03 -0.62867532841E+03  0.36422191025E+03  0.75082346921E+03  0.10100000352E+00 0. -1.
</event>
<event>
 5   0  0.1269175E-04  0.1693719E+04  0.7818609E-02  0.8764955E-01
       -2   -1    0    0    0  501  0.00000000000E+00  0.00000000000E+00  0.88582665543E+03  0.88582665543E+03  0.25500000920E-02 0.  1.
        2   -1    0    0  501    0  0.00000000000E+00  0.00000000000E+00 -0.80960653272E+03  0.80960653273E+03  0.25500000920E-02 0. -1.
    10030    2    1    2    0    0  0.00000000000E+00  0.00000000000E+00  0.76220122702E+02  0.16954331882E+04  0.16937190406E+04 0.  0.
        2    1    3    3  502    0  0.57499795279E+03 -0.61576708550E+03  0.12409983954E+03  0.85158236212E+03  0.25500000920E-02 0.  1.
       -2    1    3    3    0  502 -0.57499795279E+03  0.61576708550E+03 -0.47879716836E+02  0.84385082603E+03  0.25500000920E-02 0. -1.
</event>
<event>
 5   0  0.1255362E-04  0.1702832E+04  0.7818609E-02  0.8759751E-01
        2   -1    0    0  501    0  0.00000000000E+00  0.00000000000E+00  0.12894797890E+04  0.12894797890E+04  0.25500000920E-02 0. -1.
       -2   -1    0    0    0  501  0.00000000000E+00  0.00000000000E+00 -0.56217177699E+03  0.56217177700E+03  0.25500000920E-02 0.  1.
    10030    2    1    2    0    0  0.00000000000E+00  0.00000000000E+00  0.72730801197E+03  0.18516515660E+04  0.17028319287E+04 0.  0.
        1    1    3    3  502    0 -0.57026966439E+03  0.37789221601E+03  0.91480271756E+03  0.11423108286E+04  0.50400001928E-02 0. -1.
       -1    1    3    3    0  502  0.57026966439E+03 -0.37789221601E+03 -0.18749470559E+03  0.70934073737E+03  0.50400001928E-02 0.  1.
</event>
<event>
 5   0  0.1269175E-04  0.1696200E+04  0.7818609E-02  0.8763534E-01
       -2   -1    0    0    0  501  0.00000000000E+00  0.00000000000E+00  0.50762765876E+03  0.50762765877E+03  0.25500000920E-02 0. -1.
        2   -1    0    0  501    0  0.00000000000E+00  0.00000000000E+00 -0.14169321244E+04  0.14169321244E+04  0.25500000920E-02 0.  1.
    10030    2    1    2    0    0  0.00000000000E+00  0.00000000000E+00 -0.90930446562E+03  0.19245597832E+04  0.16962003855E+04 0.  0.
        2    1    3    3  502    0 -0.71958659540E+03  0.26408636310E+03 -0.86645798626E+03  0.11568474046E+04  0.25500000920E-02 0. -1.
       -2    1    3    3    0  502  0.71958659540E+03 -0.26408636310E+03 -0.42846479360E+02  0.76771237860E+03  0.25500000920E-02 0.  1.
</event>
<event>
 5   0  0.6601906E-05  0.1701299E+04  0.7818609E-02  0.8760624E-01
       -1   -1    0    0    0  501  0.00000000000E+00  0.00000000000E+00  0.14483187321E+04  0.14483187322E+04  0.50400001928E-02 0. -1.
        1   -1    0    0  501    0  0.00000000000E+00  0.00000000000E+00 -0.49961710961E+03  0.49961710963E+03  0.50400001928E-02 0.  1.
    10030    2    1    2    0    0  0.00000000000E+00  0.00000000000E+00  0.94870162254E+03  0.19479358418E+04  0.17012992903E+04 0.  0.
        1    1    3    3  502    0 -0.82805381958E+03  0.33217129057E+02  0.69407852677E+03  0.10809817330E+04  0.50400001928E-02 0. -1.
       -1    1    3    3    0  502  0.82805381958E+03 -0.33217129057E+02  0.25462309577E+03  0.86695410877E+03  0.50400001928E-02 0.  1.
</event>
<event>
 5   0  0.6539134E-05  0.1672381E+04  0.7818609E-02  0.8777275E-01
       -1   -1    0    0    0  501  0.00000000000E+00  0.00000000000E+00  0.68172611298E+03  0.68172611299E+03  0.50400001928E-02 0.  1.
        1   -1    0    0  501    0  0.00000000000E+00  0.00000000000E+00 -0.10256527539E+04  0.10256527539E+04  0.50400001928E-02 0. -1.
    10030    2    1    2    0    0  0.00000000000E+00  0.00000000000E+00 -0.34392664088E+03  0.17073788669E+04  0.16723806566E+04 0.  0.
        2    1    3    3  502    0 -0.78079024893E+03 -0.22732686374E+03  0.26798772050E+02  0.81365170066E+03  0.25500000920E-02 0. -1.
       -2    1    3    3    0  502  0.78079024893E+03  0.22732686374E+03 -0.37072541293E+03  0.89372716620E+03  0.25500000920E-02 0.  1.
</event>
<event>
 5   0  0.6564887E-05  0.1696084E+04  0.7818609E-02  0.8763601E-01
       -1   -1    0    0    0  501  0.00000000000E+00  0.00000000000E+00  0.54113925060E+03  0.54113925062E+03  0.50400001928E-02 0. -1.
        1   -1    0    0  501    0  0.00000000000E+00  0.00000000000E+00 -0.13290016986E+04  0.13290016986E+04  0.50400001928E-02 0.  1.
    10030    2    1    2    0    0  0.00000000000E+00  0.00000000000E+00 -0.78786244797E+03  0.18701409492E+04  0.16960837046E+04 0.  0.
        4    1    3    3  502    0  0.27074673765E+03 -0.77888037148E+03 -0.61228104630E+03  0.10270579933E+04  0.12699999809E+01 0.  1.
       -4    1    3    3    0  502 -0.27074673765E+03  0.77888037148E+03 -0.17558140168E+03  0.84308295591E+03  0.12699999809E+01 0. -1.
</event>
<event>
 5   0  0.6834837E-05  0.1705872E+04  0.7818609E-02  0.8758023E-01
        1   -1    0    0  501    0  0.00000000000E+00  0.00000000000E+00  0.88326154717E+03  0.88326154719E+03  0.50400001928E-02 0. -1.
       -1   -1    0    0    0  501  0.00000000000E+00  0.00000000000E+00 -0.82365117867E+03  0.82365117868E+03  0.50400001928E-02 0.  1.
    10030    2    1    2    0    0  0.00000000000E+00  0.00000000000E+00  0.59610368507E+02  0.17069127259E+04  0.17058715244E+04 0.  0.
        5    1    3    3  502    0  0.43211848095E+03 -0.83407572014E+02  0.76086327729E+03  0.87898704278E+03  0.46999998093E+01 0. -1.
       -5    1    3    3    0  502 -0.43211848095E+03  0.83407572014E+02 -0.70125290878E+03  0.82792568309E+03  0.46999998093E+01 0.  1.
</event>
<event>
 5   0  0.1393870E-04  0.1764061E+04  0.7818609E-02  0.8725648E-01
        2   -1    0    0  501    0  0.00000000000E+00  0.00000000000E+00  0.89535912566E+03  0.89535912567E+03  0.25500000920E-02 0.  1.
       -2   -1    0    0    0  501  0.00000000000E+00  0.00000000000E+00 -0.86890019365E+03  0.86890019366E+03  0.25500000920E-02 0. -1.
    10030    2    1    2    0    0  0.00000000000E+00  0.00000000000E+00  0.26458932008E+02  0.17642593193E+04  0.17640609034E+04 0.  0.
        3    1    3    3  502    0  0.20349744964E+03 -0.37718461004E+03 -0.75776467308E+03  0.87056691416E+03  0.10100000352E+00 0. -1.
       -3    1    3    3    0  502 -0.20349744964E+03  0.37718461004E+03  0.78422360509E+03  0.89369240516E+03  0.10100000352E+00 0.  1.
</event>
<event>
 5   0  0.1393870E-04  0.1679984E+04  0.7818609E-02  0.8772863E-01
       -2   -1    0    0    0  501  0.00000000000E+00  0.00000000000E+00  0.44823926628E+03  0.44823926629E+03  0.25500000920E-02 0. -1.
        2   -1    0    0  501    0  0.00000000000E+00  0.00000000000E+00 -0.15741297147E+04  0.15741297147E+04  0.25500000920E-02 0.  1.
    10030    2    1    2    0    0  0.00000000000E+00  0.00000000000E+00 -0.11258904484E+04  0.20223689809E+04  0.16799842241E+04 0.  0.
        3    1    3    3  502    0  0.74024845112E+03 -0.37884469426E+03 -0.70586686648E+03  0.10907516285E+04  0.10100000352E+00 0.  1.
       -3    1    3    3    0  502 -0.74024845112E+03  0.37884469426E+03 -0.42002358189E+03  0.93161735241E+03  0.10100000352E+00 0. -1.
</event>
<event>
 5   0  0.6615842E-05  0.1702715E+04  0.7818609E-02  0.8759818E-01
        1   -1    0    0  501    0  0.00000000000E+00  0.00000000000E+00  0.69520353415E+03  0.69520353417E+03  0.50400001928E-02 0.  1.
       -1   -1    0    0    0  501  0.00000000000E+00  0.00000000000E+00 -0.10425858542E+04  0.10425858542E+04  0.50400001928E-02 0. -1.
    10030    2    1    2    0    0  0.00000000000E+00  0.00000000000E+00 -0.34738232003E+03  0.17377893884E+04  0.17027147389E+04 0.  0.
        3    1    3    3  502    0  0.62188253844E+03  0.10680528549E+03  0.40962760773E+03  0.75228986956E+03  0.10100000352E+00 0.  1.
       -3    1    3    3    0  502 -0.62188253844E+03 -0.10680528549E+03 -0.75700992776E+03  0.98549951880E+03  0.10100000352E+00 0. -1.
</event>
<event>
 5   0  0.6564887E-05  0.1609270E+04  0.7818609E-02  0.8814873E-01
       -1   -1    0    0    0  501  0.00000000000E+00  0.00000000000E+00  0.51228961463E+03  0.51228961466E+03  0.50400001928E-02 0.  1.
        1   -1    0    0  501    0  0.00000000000E+00  0.00000000000E+00 -0.12638115742E+04  0.12638115742E+04  0.50400001928E-02 0. -1.
    10030    2    1    2    0    0  0.00000000000E+00  0.00000000000E+00 -0.75152195960E+03  0.17761011889E+04  0.16092700760E+04 0.  0.
        4    1    3    3  502    0  0.46898629809E+03 -0.49434929135E+02  0.34378027572E+03  0.58359099624E+03  0.12699999809E+01 0.  1.
       -4    1    3    3    0  502 -0.46898629809E+03  0.49434929135E+02 -0.10953022353E+04  0.11925101927E+04  0.12699999809E+01 0. -1.
</event>
<event>
 5   0  0.6834837E-05  0.1706375E+04  0.7818609E-02  0.8757737E-01
       -1   -1    0    0    0  501  0.00000000000E+00  0.00000000000E+00  0.74569637644E+03  0.74569637646E+03  0.50400001928E-02 0. -1.
        1   -1    0    0  501    0  0.00000000000E+00  0.00000000000E+00 -0.97617295735E+03  0.97617295736E+03  0.50400001928E-02 0.  1.
    10030    2    1    2    0    0  0.00000000000E+00  0.00000000000E+00 -0.23047658091E+03  0.17218693338E+04  0.17063746800E+04 0.  0.
        5    1    3    3  502    0 -0.49272615395E+03 -0.60257891379E+03  0.23725611180E+03  0.81375239644E+03  0.46999998093E+01 0.  1.
       -5    1    3    3    0  502  0.49272615395E+03  0.60257891379E+03 -0.46773269271E+03  0.90811693738E+03  0.46999998093E+01 0. -1.
</event>
<event>
 5   0  0.1285639E-04  0.1694659E+04  0.7818609E-02  0.8764416E-01
       -2   -1    0    0    0  501  0.00000000000E+00  0.00000000000E+00  0.26613436702E+03  0.26613436703E+03  0.25500000920E-02 0. -1.
        2   -1    0    0  501    0  0.00000000000E+00  0.00000000000E+00 -0.26977623415E+04  0.26977623415E+04  0.25500000920E-02 0.  1.
    10030    2    1    2    0    0  0.00000000000E+00  0.00000000000E+00 -0.24316279745E+04  0.29638967086E+04  0.16946589901E+04 0.  0.
        4    1    3    3  502    0 -0.70654280232E+03 -0.41849656985E+03 -0.15811068996E+04  0.17816404664E+04  0.12699999809E+01 0.  1.
       -4    1    3    3    0  502  0.70654280232E+03  0.41849656985E+03 -0.85052107493E+03  0.11822562422E+04  0.12699999809E+01 0. -1.
</event>
<event>
 5   0  0.1285639E-04  0.1718689E+04  0.7818609E-02  0.8750777E-01
       -2   -1    0    0    0  501  0.00000000000E+00  0.00000000000E+00  0.68287727555E+03  0.68287727556E+03  0.25500000920E-02 0.  1.
        2   -1    0    0  501    0  0.00000000000E+00  0.00000000000E+00 -0.10814135322E+04  0.10814135322E+04  0.25500000920E-02 0. -1.
    10030    2    1    2    0    0  0.00000000000E+00  0.00000000000E+00 -0.39853625666E+03  0.17642908078E+04  0.17186887172E+04 0.  0.
        4    1    3    3  502    0  0.28499433420E+03 -0.73472950222E+03  0.15249272037E+03  0.80268602493E+03  0.12699999809E+01 0. -1.
       -4    1    3    3    0  502 -0.28499433420E+03  0.73472950222E+03 -0.55102897703E+03  0.96160478284E+03  0.12699999809E+01 0.  1.
</event>
<event>
 5   0  0.1393870E-04  0.1733329E+04  0.7818609E-02  0.8742581E-01
        2   -1    0    0  501    0  0.00000000000E+00  0.00000000000E+00  0.11749868187E+04  0.11749868187E+04  0.25500000920E-02 0. -1.
       -2   -1    0    0    0  501  0.00000000000E+00  0.00000000000E+00 -0.63924724761E+03  0.63924724762E+03  0.25500000920E-02 0.  1.
    10030    2    1    2    0    0  0.00000000000E+00  0.00000000000E+00  0.53573957107E+03  0.18142340663E+04  0.17333286934E+04 0.  0.
        3    1    3    3  502    0  0.22014980622E+03  0.70921562793E+03  0.73555297945E+03  0.10452229140E+04  0.10100000352E+00 0. -1.
       -3    1    3    3    0  502 -0.22014980622E+03 -0.70921562793E+03 -0.19981340838E+03  0.76901115235E+03  0.10100000352E+00 0.  1.
</event>
<event>
 5   0  0.6601906E-05  0.1706979E+04  0.7818609E-02  0.8757394E-01
       -1   -1    0    0    0  501  0.00000000000E+00  0.00000000000E+00  0.37954697455E+03  0.37954697459E+03  0.50400001928E-02 0.  1.
        1   -1    0    0  501    0  0.00000000000E+00  0.00000000000E+00 -0.19192475056E+04  0.19192475056E+04  0.50400001928E-02 0. -1.
    10030    2    1    2    0    0  0.00000000000E+00  0.00000000000E+00 -0.15397005310E+04  0.22987944802E+04  0.17069793018E+04 0.  0.
        1    1    3    3  502    0 -0.80752467271E+03 -0.91362596551E+02 -0.41866951735E+03  0.91418126532E+03  0.50400001928E-02 0.  1.
       -1    1    3    3    0  502  0.80752467271E+03  0.91362596551E+02 -0.11210310137E+04  0.13846132148E+04  0.50400001928E-02 0. -1.
</event>
<event>
 5   0  0.1285639E-04  0.1720404E+04  0.7818609E-02  0.8749812E-01
       -2   -1    0    0    0  501  0.00000000000E+00  0.00000000000E+00  0.69504133849E+03  0.69504133850E+03  0.25500000920E-02 0. -1.
        2   -1    0    0  501    0  0.00000000000E+00  0.00000000000E+00 -0.10646096972E+04  0.10646096972E+04  0.25500000920E-02 0.  1.
    10030    2    1    2    0    0  0.00000000000E+00  0.00000000000E+00 -0.36956835869E+03  0.17596510357E+04  0.17204043117E+04 0.  0.
        4    1    3    3  502    0  0.40707885682E+03 -0.37531099679E+03  0.48854549091E+03  0.73841035310E+03  0.12699999809E+01 0. -1.
       -4    1    3    3    0  502 -0.40707885682E+03  0.37531099679E+03 -0.85811384960E+03  0.10212406826E+04  0.12699999809E+01 0.  1.
</event>
<event>
 5   0  0.6564887E-05  0.1693103E+04  0.7818609E-02  0.8765308E-01
       -1   -1    0    0    0  501  0.00000000000E+00  0.00000000000E+00  0.76416557431E+03  0.76416557433E+03  0.50400001928E-02 0. -1.
        1   -1    0    0  501    0  0.00000000000E+00  0.00000000000E+00 -0.93781965702E+03  0.93781965703E+03  0.50400001928E-02 0.  1.
    10030    2    1    2    0    0  0.00000000000E+00  0.00000000000E+00 -0.17365408271E+03  0.17019852314E+04  0.16931030646E+04 0.  0.
        4    1    3    3  502    0 -0.32354381291E+03 -0.17581933553E+03 -0.85309551054E+03  0.92917522600E+03  0.12699999809E+01 0.  1.
       -4    1    3    3    0  502  0.32354381291E+03  0.17581933553E+03  0.67944142783E+03  0.77281000535E+03  0.12699999809E+01 0. -1.
</event>
<event>
 5   0  0.1255362E-04  0.1702364E+04  0.7818609E-02  0.8760017E-01
        2   -1    0    0  501    0  0.00000000000E+00  0.00000000000E+00  0.85391814910E+03  0.85391814910E+03  0.25500000920E-02 0.  1.
       -2   -1    0    0    0  501  0.00000000000E+00  0.00000000000E+00 -0.84845506355E+03  0.84845506355E+03  0.25500000920E-02 0. -1.
    10030    2    1    2    0    0  0.00000000000E+00  0.00000000000E+00  0.54630855540E+01  0.17023732127E+04  0.17023644468E+04 0.  0.
        1    1    3    3  502    0  0.51422289687E+03  0.55890844152E+03 -0.38159756741E+03  0.84995325585E+03  0.50400001928E-02 0. -1.
       -1    1    3    3    0  502 -0.51422289687E+03 -0.55890844152E+03  0.38706065296E+03  0.85241995680E+03  0.50400001928E-02 0.  1.
</event>
<event>
 5   0  0.1333546E-04  0.1693396E+04  0.7818609E-02  0.8765140E-01
       -2   -1    0    0    0  501  0.00000000000E+00  0.00000000000E+00  0.48193557177E+03  0.48193557177E+03  0.25500000920E-02 0. -1.
        2   -1    0    0  501    0  0.00000000000E+00  0.00000000000E+00 -0.14875382040E+04  0.14875382040E+04  0.25500000920E-02 0.  1.
    10030    2    1    2    0    0  0.00000000000E+00  0.00000000000E+00 -0.10056026322E+04  0.19694737758E+04  0.16933960846E+04 0.  0.
        5    1    3    3  502    0 -0.44490149097E+03  0.45261952924E+03  0.14898830919E+03  0.65193663894E+03  0.46999998093E+01 0. -1.
       -5    1    3    3    0  502  0.44490149097E+03 -0.45261952924E+03 -0.11545909414E+04  0.13175371368E+04  0.46999998093E+01 0.  1.
</event>
<event>
 5   0  0.6601906E-05  0.1692896E+04  0.7818609E-02  0.8765427E-01
        1   -1    0    0  501    0  0.00000000000E+00  0.00000000000E+00  0.10605244319E+04  0.10605244319E+04  0.50400001928E-02 0. -1.
       -1   -1    0    0    0  501  0.00000000000E+00  0.00000000000E+00 -0.67558459686E+03  0.67558459688E+03  0.50400001928E-02 0.  1.
    10030    2    1    2    0    0  0.00000000000E+00  0.00000000000E+00  0.38493983505E+03  0.17361090288E+04  0.16928957095E+04 0.  0.
        1    1    3    3  502    0  0.37863666787E+03 -0.20115574069E+03 -0.55598485275E+03  0.70210292321E+03  0.50400001928E-02 0.  1.
       -1    1    3    3    0  502 -0.37863666787E+03  0.20115574069E+03  0.94092468780E+03  0.10340061056E+04  0.50400001928E-02 0. -1.
</event>
<event>
 5   0  0.6601906E-05  0.1702788E+04  0.7818609E-02  0.8759776E-01
        1   -1    0    0  501    0  0.00000000000E+00  0.00000000000E+00  0.62392867032E+03  0.62392867034E+03  0.50400001928E-02 0. -1.
       -1   -1    0    0    0  501  0.00000000000E+00  0.00000000000E+00 -0.11617869110E+04  0.11617869110E+04  0.50400001928E-02 0.  1.
    10030    2    1    2    0    0  0.00000000000E+00  0.00000000000E+00 -0.53785824066E+03  0.17857155813E+04  0.17027884926E+04 0.  0.
        1    1    3    3  502    0  0.80399139314E+03  0.15351620528E+03 -0.23204463298E+02  0.81884542661E+03  0.50400001928E-02 0. -1.
       -1    1    3    3    0  502 -0.80399139314E+03 -0.15351620528E+03 -0.51465377736E+03  0.96687015473E+03  0.50400001928E-02 0.  1.
</event>
<event>
 5   0  0.6564887E-05  0.1700089E+04  0.7818609E-02  0.8761314E-01
       -1   -1    0    0    0  501  0.00000000000E+00  0.00000000000E+00  0.92991452903E+03  0.92991452905E+03  0.50400001928E-02 0. -1.
        1   -1    0    0  501    0  0.00000000000E+00  0.00000000000E+00 -0.77703460341E+03  0.77703460342E+03  0.50400001928E-02 0.  1.
    10030    2    1    2    0    0  0.00000000000E+00  0.00000000000E+00  0.15287992562E+03  0.17069491325E+04  0.17000891357E+04 0.  0.
        4    1    3    3  502    0 -0.35753133246E+03  0.85596703612E+02  0.84596503260E+03  0.92239573863E+03  0.12699999809E+01 0. -1.
       -4    1    3    3    0  502  0.35753133246E+03 -0.85596703612E+02 -0.69308510698E+03  0.78455339384E+03  0.12699999809E+01 0.  1.
</event>
<event>
 5   0  0.1285639E-04  0.1690748E+04  0.7818609E-02  0.8766659E-01
        2   -1    0    0  501    0  0.00000000000E+00  0.00000000000E+00  0.23793528873E+04  0.23793528873E+04  0.25500000920E-02 0. -1.
       -2   -1    0    0    0  501  0.00000000000E+00  0.00000000000E+00 -0.30035768893E+03  0.30035768894E+03  0.25500000920E-02 0.  1.
    10030    2    1    2    0    0  0.00000000000E+00  0.00000000000E+00  0.20789951984E+04  0.26797105763E+04  0.16907476860E+04 0.  0.
        4    1    3    3  502    0  0.12877514410E+03  0.79836305625E+03  0.14299454680E+04  0.16427757795E+04  0.12699999809E+01 0. -1.
       -4    1    3    3    0  502 -0.12877514410E+03 -0.79836305625E+03  0.64904973036E+03  0.10369347967E+04  0.12699999809E+01 0.  1.
</event>
<event>
 5   0  0.6601906E-05  0.1687533E+04  0.7818609E-02  0.8768507E-01
        1   -1    0    0  501    0  0.00000000000E+00  0.00000000000E+00  0.95927527913E+03  0.95927527915E+03  0.50400001928E-02 0.  1.
       -1   -1    0    0    0  501  0.00000000000E+00  0.00000000000E+00 -0.74216650704E+03  0.74216650705E+03  0.50400001928E-02 0. -1.
    10030    2    1    2    0    0  0.00000000000E+00  0.00000000000E+00  0.21710877210E+03  0.17014417862E+04  0.16875330909E+04 0.  0.
        1    1    3    3  502    0 -0.52374032137E+03 -0.41420642654E+03  0.62862659316E+03  0.91708357398E+03  0.50400001928E-02 0.  1.
       -1    1    3    3    0  502  0.52374032137E+03  0.41420642654E+03 -0.41151782106E+03  0.78435821222E+03  0.50400001928E-02 0. -1.
</event>
<event>
 5   0  0.1255362E-04  0.1701522E+04  0.7818609E-02  0.8760497E-01
        2   -1    0    0  501    0  0.00000000000E+00  0.00000000000E+00  0.67769442300E+03  0.67769442301E+03  0.25500000920E-02 0.  1.
       -2   -1    0    0    0  501  0.00000000000E+00  0.00000000000E+00 -0.10680242674E+04  0.10680242674E+04  0.25500000920E-02 0. -1.
    10030    2    1    2    0    0  0.00000000000E+00  0.00000000000E+00 -0.39032984444E+03  0.17457186904E+04  0.17015217773E+04 0.  0.
        1    1    3    3  502    0 -0.77636141780E+03  0.15946838760E+03  0.12210340934E+03  0.80192048252E+03  0.50400001928E-02 0.  1.
       -1    1    3    3    0  502  0.77636141780E+03 -0.15946838760E+03 -0.51243325378E+03  0.94379820793E+03  0.50400001928E-02 0. -1.
</event>
<event>
 5   0  0.4720875E-05  0.1704975E+04  0.7818609E-02  0.8758532E-01
       -3   -1    0    0    0  501  0.00000000000E+00  0.00000000000E+00  0.10535343219E+04  0.10535343267E+04  0.10100000352E+00 0. -1.
        3   -1    0    0  501    0  0.00000000000E+00  0.00000000000E+00 -0.68980667584E+03  0.68980668323E+03  0.10100000352E+00 0.  1.
    10030    2    1    2    0    0  0.00000000000E+00  0.00000000000E+00  0.36372764603E+03  0.17433410099E+04  0.17049750956E+04 0.  0.
        5    1    3    3  502    0  0.65122307227E+03  0.50645286145E+03  0.40146851851E+03  0.91748844793E+03  0.46999998093E+01 0. -1.
       -5    1    3    3    0  502 -0.65122307227E+03 -0.50645286145E+03 -0.37740872483E+02  0.82585256201E+03  0.46999998093E+01 0.  1.
</event>
<event>
 5   0  0.6834837E-05  0.1731115E+04  0.7818609E-02  0.8743815E-01
       -1   -1    0    0    0  501  0.00000000000E+00  0.00000000000E+00  0.12996021071E+04  0.12996021071E+04  0.50400001928E-02 0. -1.
        1   -1    0    0  501    0  0.00000000000E+00  0.00000000000E+00 -0.57647616978E+03  0.57647616981E+03  0.50400001928E-02 0.  1.
    10030    2    1    2    0    0  0.00000000000E+00  0.00000000000E+00  0.72312593732E+03  0.18760782769E+04  0.17311148373E+04 0.  0.
        5    1    3    3  502    0  0.18810312755E+03  0.50280398925E+03  0.10973680476E+04  0.12216518981E+04  0.46999998093E+01 0. -1.
       -5    1    3    3    0  502 -0.18810312755E+03 -0.50280398925E+03 -0.37424211028E+03  0.65442637883E+03  0.46999998093E+01 0.  1.
</event>
<event>
 5   0  0.1393870E-04  0.1707913E+04  0.7818609E-02  0.8756864E-01
        2   -1    0    0  501    0  0.00000000000E+00  0.00000000000E+00  0.16758879574E+04  0.16758879574E+04  0.25500000920E-02 0.  1.
       -2   -1    0    0    0  501  0.00000000000E+00  0.00000000000E+00 -0.43513757539E+03  0.43513757540E+03  0.25500000920E-02 0. -1.
    10030    2    1    2    0    0  0.00000000000E+00  0.00000000000E+00  0.12407503820E+04  0.21110255328E+04  0.17079131388E+04 0.  0.
        3    1    3    3  502    0 -0.63812130138E+03 -0.35560349715E+03  0.11670135553E+04  0.13767982026E+04  0.10100000352E+00 0. -1.
       -3    1    3    3    0  502  0.63812130138E+03  0.35560349715E+03  0.73736826703E+02  0.73422733011E+03  0.10100000352E+00 0.  1.
</event>
<event>
 5   0  0.6601906E-05  0.1706206E+04  0.7818609E-02  0.8757833E-01
       -1   -1    0    0    0  501  0.00000000000E+00  0.00000000000E+00  0.99960559999E+03  0.99960560000E+03  0.50400001928E-02 0.  1.
        1   -1    0    0  501    0  0.00000000000E+00  0.00000000000E+00 -0.72807161275E+03  0.72807161277E+03  0.50400001928E-02 0. -1.
    10030    2    1    2    0    0  0.00000000000E+00  0.00000000000E+00  0.27153398724E+03  0.17276772128E+04  0.17062056867E+04 0.  0.
        1    1    3    3  502    0  0.61474407715E+03 -0.48045488989E+03 -0.21359263467E+03  0.80893077282E+03  0.50400001928E-02 0. -1.
       -1    1    3    3    0  502 -0.61474407715E+03  0.48045488989E+03  0.48512662191E+03  0.91874643995E+03  0.50400001928E-02 0.  1.
</event>
<event>
 5   0  0.4720875E-05  0.1697599E+04  0.7818609E-02  0.8762735E-01
        3   -1    0    0  501    0  0.00000000000E+00  0.00000000000E+00  0.23222657608E+04  0.23222657630E+04  0.10100000352E+00 0. -1.
       -3   -1    0    0    0  501  0.00000000000E+00  0.00000000000E+00 -0.31024028560E+03  0.31024030204E+03  0.10100000352E+00 0.  1.
    10030    2    1    2    0    0  0.00000000000E+00  0.00000000000E+00  0.20120254752E+04  0.26325060650E+04  0.16975987952E+04 0.  0.
        2    1    3    3  502    0  0.54379629839E+03 -0.47164125056E+02  0.20140086094E+04  0.20866646946E+04  0.25500000920E-02 0. -1.
       -2    1    3    3    0  502 -0.54379629839E+03  0.47164125056E+02 -0.19831342466E+01  0.54584137042E+03  0.25500000920E-02 0.  1.
</event>
<event>
 5   0  0.1333546E-04  0.1700517E+04  0.7818609E-02  0.8761069E-01
        2   -1    0    0  501    0  0.00000000000E+00  0.00000000000E+00  0.91238926814E+03  0.91238926815E+03  0.25500000920E-02 0. -1.
       -2   -1    0    0    0  501  0.00000000000E+00  0.00000000000E+00 -0.79235890800E+03  0.79235890800E+03  0.25500000920E-02 0.  1.
    10030    2    1    2    0    0  0.00000000000E+00  0.00000000000E+00  0.12003036015E+03  0.17047481761E+04  0.17005172909E+04 0.  0.
        5    1    3    3  502    0 -0.12855607662E+02  0.34038441577E+03 -0.72095505073E+03  0.79738641343E+03  0.46999998093E+01 0.  1.
       -5    1    3    3    0  502  0.12855607662E+02 -0.34038441577E+03  0.84098541088E+03  0.90736176272E+03  0.46999998093E+01 0. -1.
</event>
<event>
 5   0  0.6601906E-05  0.1695782E+04  0.7818609E-02  0.8763774E-01
       -1   -1    0    0    0  501  0.00000000000E+00  0.00000000000E+00  0.77318886658E+03  0.77318886660E+03  0.50400001928E-02 0. -1.
        1   -1    0    0  501    0  0.00000000000E+00  0.00000000000E+00 -0.92981060584E+03  0.92981060585E+03  0.50400001928E-02 0.  1.
    10030    2    1    2    0    0  0.00000000000E+00  0.00000000000E+00 -0.15662173926E+03  0.17029994725E+04  0.16957820715E+04 0.  0.
        1    1    3    3  502    0  0.69699251837E+03  0.40197083983E+03  0.19029728300E+03  0.82679633688E+03  0.50400001928E-02 0. -1.
       -1    1    3    3    0  502 -0.69699251837E+03 -0.40197083983E+03 -0.34691902226E+03  0.87620313557E+03  0.50400001928E-02 0.  1.
</event>
<event>
 5   0  0.6834837E-05  0.1703468E+04  0.7818609E-02  0.8759389E-01
        1   -1    0    0  501    0  0.00000000000E+00  0.00000000000E+00  0.21491726849E+04  0.21491726849E+04  0.50400001928E-02 0. -1.
       -1   -1    0    0    0  501  0.00000000000E+00  0.00000000000E+00 -0.33754888560E+03  0.33754888564E+03  0.50400001928E-02 0.  1.
    10030    2    1    2    0    0  0.00000000000E+00  0.00000000000E+00  0.18116237993E+04  0.24867215706E+04  0.17034680447E+04 0.  0.
        5    1    3    3  502    0  0.58815861834E+03 -0.50450238093E+03  0.14218784199E+04  0.16193250272E+04  0.46999998093E+01 0.  1.
       -5    1    3    3    0  502 -0.58815861834E+03  0.50450238093E+03  0.38974537943E+03  0.86739654338E+03  0.46999998093E+01 0. -1.
</event>
<event>
 5   0  0.6615842E-05  0.1701543E+04  0.7818609E-02  0.8760485E-01
        1   -1    0    0  501    0  0.00000000000E+00  0.00000000000E+00  0.78145517317E+03  0.78145517319E+03  0.50400001928E-02 0.  1.
       -1   -1    0    0    0  501  0.00000000000E+00  0.00000000000E+00 -0.92623582750E+03  0.92623582752E+03  0.50400001928E-02 0. -1.
    10030    2    1    2    0    0  0.00000000000E+00  0.00000000000E+00 -0.14478065434E+03  0.17076910007E+04  0.17015425696E+04 0.  0.
        3    1    3    3  502    0 -0.53433418782E+03  0.65482351566E+03  0.25455075914E+02  0.84555001746E+03  0.10100000352E+00 0.  1.
       -3    1    3    3    0  502  0.53433418782E+03 -0.65482351566E+03 -0.17023573025E+03  0.86214098324E+03  0.10100000352E+00 0. -1.
</event>
<event>
 5   0  0.1285639E-04  0.1700687E+04  0.7818609E-02  0.8760972E-01
        2   -1    0    0  501    0  0.00000000000E+00  0.00000000000E+00  0.21889603016E+04  0.21889603016E+04  0.25500000920E-02 0. -1.
       -2   -1    0    0    0  501  0.00000000000E+00  0.00000000000E+00 -0.33033233525E+03  0.33033233526E+03  0.25500000920E-02 0.  1.
    10030    2    1    2    0    0  0.00000000000E+00  0.00000000000E+00  0.18586279664E+04  0.25192926369E+04  0.17006873531E+04 0.  0.
        4    1    3    3  502    0 -0.46798264394E+03 -0.26079964842E+03 -0.48883486786E+02  0.53797343784E+03  0.12699999809E+01 0.  1.
       -4    1    3    3    0  502  0.46798264394E+03  0.26079964842E+03  0.19075114531E+04  0.19813191990E+04  0.12699999809E+01 0. -1.
</event>
<event>
 5   0  0.6539134E-05  0.1701579E+04  0.7818609E-02  0.8760465E-01
        1   -1    0    0  501    0  0.00000000000E+00  0.00000000000E+00  0.84822425983E+03  0.84822425984E+03  0.50400001928E-02 0.  1.
       -1   -1    0    0    0  501  0.00000000000E+00  0.00000000000E+00 -0.85336202849E+03  0.85336202851E+03  0.50400001928E-02 0. -1.
    10030    2    1    2    0    0  0.00000000000E+00  0.00000000000E+00 -0.51377686641E+01  0.17015862883E+04  0.17015785318E+04 0.  0.
        2    1    3    3  502    0 -0.54279114972E+03 -0.11449505628E+03 -0.64763850732E+03  0.85274086702E+03  0.25500000920E-02 0. -1.
       -2    1    3    3    0  502  0.54279114972E+03  0.11449505628E+03  0.64250073866E+03  0.84884542132E+03  0.25500000920E-02 0.  1.
</event>
<event>
 5   0  0.4720875E-05  0.1701537E+04  0.7818609E-02  0.8760488E-01
       -3   -1    0    0    0  501  0.00000000000E+00  0.00000000000E+00  0.82647307633E+03  0.82647308250E+03  0.10100000352E+00 0. -1.
        3   -1    0    0  501    0  0.00000000000E+00  0.00000000000E+00 -0.87577828238E+03  0.87577828821E+03  0.10100000352E+00 0.  1.
    10030    2    1    2    0    0  0.00000000000E+00  0.00000000000E+00 -0.49305206056E+02  0.17022513707E+04  0.17015371655E+04 0.  0.
        3    1    3    3  502    0 -0.13994553817E+03  0.53103258897E+03 -0.67471516413E+03  0.86995455462E+03  0.10100000352E+00 0.  1.
       -3    1    3    3    0  502  0.13994553817E+03 -0.53103258897E+03  0.62540995807E+03  0.83229681608E+03  0.10100000352E+00 0. -1.
</event>
<event>
 5   0  0.1255362E-04  0.1703671E+04  0.7818609E-02  0.8759273E-01
       -2   -1    0    0    0  501  0.00000000000E+00  0.00000000000E+00  0.62624221961E+03  0.62624221962E+03  0.25500000920E-02 0.  1.
        2   -1    0    0  501    0  0.00000000000E+00  0.00000000000E+00 -0.11586955762E+04  0.11586955762E+04  0.25500000920E-02 0. -1.
    10030    2    1    2    0    0  0.00000000000E+00  0.00000000000E+00 -0.53245335658E+03  0.17849377958E+04  0.17036714349E+04 0.  0.
        1    1    3    3  502    0  0.22390299516E+03 -0.13585641775E+03 -0.11154684643E+04  0.11458007734E+04  0.50400001928E-02 0. -1.
       -1    1    3    3    0  502 -0.22390299516E+03  0.13585641775E+03  0.58301510775E+03  0.63913702237E+03  0.50400001928E-02 0.  1.
</event>
<event>
 5   0  0.1285639E-04  0.1702310E+04  0.7818609E-02  0.8760048E-01
       -2   -1    0    0    0  501  0.00000000000E+00  0.00000000000E+00  0.76299550499E+03  0.76299550499E+03  0.25500000920E-02 0. -1.
        2   -1    0    0  501    0  0.00000000000E+00  0.00000000000E+00 -0.94950095643E+03  0.94950095644E+03  0.25500000920E-02 0.  1.
    10030    2    1    2    0    0  0.00000000000E+00  0.00000000000E+00 -0.18650545145E+03  0.17124964614E+04  0.17023101501E+04 0.  0.
        4    1    3    3  502    0 -0.82914489415E+03  0.14877432955E+03  0.29329992405E+02  0.84289792857E+03  0.12699999809E+01 0.  1.
       -4    1    3    3    0  502  0.82914489415E+03 -0.14877432955E+03 -0.21583544385E+03  0.86959853286E+03  0.12699999809E+01 0. -1.
</event>
<event>
 5   0  0.1285639E-04  0.1699929E+04  0.7818609E-02  0.8761405E-01
       -2   -1    0    0    0  501  0.00000000000E+00  0.00000000000E+00  0.49085867588E+03  0.49085867589E+03  0.25500000920E-02 0.  1.
        2   -1    0    0  501    0  0.00000000000E+00  0.00000000000E+00 -0.14717876613E+04  0.14717876613E+04  0.25500000920E-02 0. -1.
    10030    2    1    2    0    0  0.00000000000E+00  0.00000000000E+00 -0.98092898538E+03  0.19626463371E+04  0.16999291075E+04 0.  0.
        4    1    3    3  502    0 -0.17797003844E+03 -0.83099063761E+03 -0.50756406758E+03  0.98986952170E+03  0.12699999809E+01 0. -1.
       -4    1    3    3    0  502  0.17797003844E+03  0.83099063761E+03 -0.47336491779E+03  0.97277681545E+03  0.12699999809E+01 0.  1.
</event>
<event>
 5   0  0.1269175E-04  0.1695073E+04  0.7818609E-02  0.8764180E-01
       -2   -1    0    0    0  501  0.00000000000E+00  0.00000000000E+00  0.10220646022E+04  0.10220646022E+04  0.25500000920E-02 0. -1.
        2   -1    0    0  501    0  0.00000000000E+00  0.00000000000E+00 -0.70281048112E+03  0.70281048113E+03  0.25500000920E-02 0.  1.
    10030    2    1    2    0    0  0.00000000000E+00  0.00000000000E+00  0.31925412104E+03  0.17248750833E+04  0.16950725233E+04 0.  0.
        2    1    3    3  502    0 -0.44952084361E+03  0.67175390424E+03  0.41905140938E+03  0.91045394195E+03  0.25500000920E-02 0. -1.
       -2    1    3    3    0  502  0.44952084361E+03 -0.67175390424E+03 -0.99797288338E+02  0.81442114134E+03  0.25500000920E-02 0.  1.
</event>
<event>
 5   0  0.1393870E-04  0.1697737E+04  0.7818609E-02  0.8762656E-01
        2   -1    0    0  501    0  0.00000000000E+00  0.00000000000E+00  0.76182790856E+03  0.76182790857E+03  0.25500000920E-02 0.  1.
       -2   -1    0    0    0  501  0.00000000000E+00  0.00000000000E+00 -0.94585377039E+03  0.94585377039E+03  0.25500000920E-02 0. -1.
    10030    2    1    2    0    0  0.00000000000E+00  0.00000000000E+00 -0.18402586182E+03  0.17076816790E+04  0.16977370818E+04 0.  0.
        3    1    3    3  502    0 -0.37317866621E+03 -0.36667913340E+03 -0.76440586574E+03  0.92630029773E+03  0.10100000352E+00 0. -1.
       -3    1    3    3    0  502  0.37317866621E+03  0.36667913340E+03  0.58038000392E+03  0.78138138123E+03  0.10100000352E+00 0.  1.
</event>
<event>
 5   0  0.6615842E-05  0.1707205E+04  0.7818609E-02  0.8757266E-01
       -1   -1    0    0    0  501  0.00000000000E+00  0.00000000000E+00  0.12366578479E+04  0.12366578479E+04  0.50400001928E-02 0. -1.
        1   -1    0    0  501    0  0.00000000000E+00  0.00000000000E+00 -0.58919847128E+03  0.58919847130E+03  0.50400001928E-02 0.  1.
    10030    2    1    2    0    0  0.00000000000E+00  0.00000000000E+00  0.64745937659E+03  0.18258563192E+04  0.17072046315E+04 0.  0.
        3    1    3    3  502    0  0.67453588743E+03 -0.30419391498E+03 -0.13141072751E+03  0.75153269447E+03  0.10100000352E+00 0.  1.
       -3    1    3    3    0  502 -0.67453588743E+03  0.30419391498E+03  0.77887010410E+03  0.10743236247E+04  0.10100000352E+00 0. -1.
</event>
<event>
 5   0  0.6564887E-05  0.1698224E+04  0.7818609E-02  0.8762378E-01
        1   -1    0    0  501    0  0.00000000000E+00  0.00000000000E+00  0.57925468024E+03  0.57925468027E+03  0.50400001928E-02 0. -1.
       -1   -1    0    0    0  501  0.00000000000E+00  0.00000000000E+00 -0.12446879679E+04  0.12446879679E+04  0.50400001928E-02 0.  1.
    10030    2    1    2    0    0  0.00000000000E+00  0.00000000000E+00 -0.66543328769E+03  0.18239426482E+04  0.16982241677E+04 0.  0.
        4    1    3    3  502    0  0.37028141582E+03  0.20213391021E+03 -0.11241701055E+04  0.12007191526E+04  0.12699999809E+01 0.  1.
       -4    1    3    3    0  502 -0.37028141582E+03 -0.20213391021E+03  0.45873681778E+03  0.62322349558E+03  0.12699999809E+01 0. -1.
</event>
<event>
 5   0  0.1393870E-04  0.1700914E+04  0.7818609E-02  0.8760843E-01
       -2   -1    0    0    0  501  0.00000000000E+00  0.00000000000E+00  0.12732720678E+04  0.12732720678E+04  0.25500000920E-02 0.  1.
        2   -1    0    0  501    0  0.00000000000E+00  0.00000000000E+00 -0.56804621251E+03  0.56804621251E+03  0.25500000920E-02 0. -1.
    10030    2    1    2    0    0  0.00000000000E+00  0.00000000000E+00  0.70522585527E+03  0.18413182803E+04  0.17009143137E+04 0.  0.
        3    1    3    3  502    0  0.15480227881E+03  0.45427456483E+03 -0.40744569258E+03  0.62955629485E+03  0.10100000352E+00 0. -1.
       -3    1    3    3    0  502 -0.15480227881E+03 -0.45427456483E+03  0.11126715479E+04  0.12117619854E+04  0.10100000352E+00 0.  1.
</event>
<event>
 5   0  0.1269175E-04  0.1706584E+04  0.7818609E-02  0.8757618E-01
       -2   -1    0    0    0  501  0.00000000000E+00  0.00000000000E+00  0.80229494773E+03  0.80229494773E+03  0.25500000920E-02 0. -1.
        2   -1    0    0  501    0  0.00000000000E+00  0.00000000000E+00 -0.90753110036E+03  0.90753110036E+03  0.25500000920E-02 0.  1.
    10030    2    1    2    0    0  0.00000000000E+00  0.00000000000E+00 -0.10523615263E+03  0.17098260481E+04  0.17065844447E+04 0.  0.
        2    1    3    3  502    0 -0.10414494220E+03  0.63984105443E+03 -0.60852772979E+03  0.88912807955E+03  0.25500000920E-02 0.  1.
       -2    1    3    3    0  502  0.10414494220E+03 -0.63984105443E+03  0.50329157716E+03  0.82069796854E+03  0.25500000920E-02 0. -1.
</event>
<event>
 5   0  0.6601906E-05  0.1702395E+04  0.7818609E-02  0.8759999E-01
       -1   -1    0    0    0  501  0.00000000000E+00  0.00000000000E+00  0.27947869788E+03  0.27947869792E+03  0.50400001928E-02 0. -1.
        1   -1    0    0  501    0  0.00000000000E+00  0.00000000000E+00 -0.25924603535E+04  0.25924603535E+04  0.50400001928E-02 0.  1.
    10030    2    1    2    0    0  0.00000000000E+00  0.00000000000E+00 -0.23129816556E+04  0.28719390514E+04  0.17023953054E+04 0.  0.
        1    1    3    3  502    0  0.40205917747E+03 -0.64929970224E+03 -0.52235926719E+03  0.92525720185E+03  0.50400001928E-02 0. -1.
       -1    1    3    3    0  502 -0.40205917747E+03  0.64929970224E+03 -0.17906223884E+04  0.19466818495E+04  0.50400001928E-02 0.  1.
</event>
<event>
 5   0  0.1255362E-04  0.1712315E+04  0.7818609E-02  0.8754372E-01
        2   -1    0    0  501    0  0.00000000000E+00  0.00000000000E+00  0.13825027641E+04  0.13825027641E+04  0.25500000920E-02 0.  1.
       -2   -1    0    0    0  501  0.00000000000E+00  0.00000000000E+00 -0.53020180609E+03  0.53020180609E+03  0.25500000920E-02 0. -1.
    10030    2    1    2    0    0  0.00000000000E+00  0.00000000000E+00  0.85230095801E+03  0.19127045702E+04  0.17123147637E+04 0.  0.
        1    1    3    3  502    0 -0.72095430397E+03  0.44203858749E+03  0.57531559123E+03  0.10228202436E+04  0.50400001928E-02 0. -1.
       -1    1    3    3    0  502  0.72095430397E+03 -0.44203858749E+03  0.27698536678E+03  0.88988432657E+03  0.50400001928E-02 0.  1.
</event>
<event>
 5   0  0.6539134E-05  0.1716568E+04  0.7818609E-02  0.8751971E-01
        1   -1    0    0  501    0  0.00000000000E+00  0.00000000000E+00  0.12099289747E+04  0.12099289747E+04  0.50400001928E-02 0.  1.
       -1   -1    0    0    0  501  0.00000000000E+00  0.00000000000E+00 -0.60883822762E+03  0.60883822764E+03  0.50400001928E-02 0. -1.
    10030    2    1    2    0    0  0.00000000000E+00  0.00000000000E+00  0.60109074704E+03  0.18187672023E+04  0.17165675198E+04 0.  0.
        2    1    3    3  502    0 -0.82306267059E+03  0.22008834284E+03  0.41055357950E+03  0.94574059870E+03  0.25500000920E-02 0.  1.
       -2    1    3    3    0  502  0.82306267059E+03 -0.22008834284E+03  0.19053716754E+03  0.87302660360E+03  0.25500000920E-02 0. -1.
</event>
<event>
 5   0  0.1333546E-04  0.1714540E+04  0.7818609E-02  0.8753115E-01
        2   -1    0    0  501    0  0.00000000000E+00  0.00000000000E+00  0.53601927881E+03  0.53601927881E+03  0.25500000920E-02 0. -1.
       -2   -1    0    0    0  501  0.00000000000E+00  0.00000000000E+00 -0.13710547141E+04  0.13710547141E+04  0.25500000920E-02 0.  1.
    10030    2    1    2    0    0  0.00000000000E+00  0.00000000000E+00 -0.83503543526E+03  0.19070739929E+04  0.17145398905E+04 0.  0.
        5    1    3    3  502    0  0.66198057321E+03 -0.93863786669E+02  0.17925828214E+03  0.69223140024E+03  0.46999998093E+01 0. -1.
       -5    1    3    3    0  502 -0.66198057321E+03  0.93863786669E+02 -0.10142937174E+04  0.12148425926E+04  0.46999998093E+01 0.  1.
</event>
<event>
 5   0  0.6539134E-05  0.1700201E+04  0.7818609E-02  0.8761249E-01
       -1   -1    0    0    0  501  0.00000000000E+00  0.00000000000E+00  0.33176865218E+03  0.33176865221E+03  0.50400001928E-02 0.  1.
        1   -1    0    0  501    0  0.00000000000E+00  0.00000000000E+00 -0.21782384567E+04  0.21782384567E+04  0.50400001928E-02 0. -1.
    10030    2    1    2    0    0  0.00000000000E+00  0.00000000000E+00 -0.18464698046E+04  0.25100071090E+04  0.17002014433E+04 0.  0.
        2    1    3    3  502    0  0.79799167807E+03  0.29169756419E+03 -0.88166061763E+03  0.12244197123E+04  0.25500000920E-02 0.  1.
       -2    1    3    3    0  502 -0.79799167807E+03 -0.29169756419E+03 -0.96480918693E+03  0.12855873966E+04  0.25500000920E-02 0. -1.
</event>
<event>
 5   0  0.6615842E-05  0.1700391E+04  0.7818609E-02  0.8761142E-01
        1   -1    0    0  501    0  0.00000000000E+00  0.00000000000E+00  0.13025977412E+04  0.13025977413E+04  0.50400001928E-02 0.  1.
       -1   -1    0    0    0  501  0.00000000000E+00  0.00000000000E+00 -0.55491583884E+03  0.55491583886E+03  0.50400001928E-02 0. -1.
    10030    2    1    2    0    0  0.00000000000E+00  0.00000000000E+00  0.74768190240E+03  0.18575135801E+04  0.17003906825E+04 0.  0.
        3    1    3    3  502    0  0.77521341619E+03  0.34717978842E+03  0.33381568080E+03  0.91264591440E+03  0.10100000352E+00 0. -1.
       -3    1    3    3    0  502 -0.77521341619E+03 -0.34717978842E+03  0.41386622160E+03  0.94486766571E+03  0.10100000352E+00 0.  1.
</event>
<event>
 5   0  0.6834837E-05  0.1701168E+04  0.7818609E-02  0.8760698E-01
       -1   -1    0    0    0  501  0.00000000000E+00  0.00000000000E+00  0.96364599989E+03  0.96364599990E+03  0.50400001928E-02 0. -1.
        1   -1    0    0  501    0  0.00000000000E+00  0.00000000000E+00 -0.75078764582E+03  0.75078764584E+03  0.50400001928E-02 0.  1.
    10030    2    1    2    0    0  0.00000000000E+00  0.00000000000E+00  0.21285835407E+03  0.17144336457E+04  0.17011684357E+04 0.  0.
        5    1    3    3  502    0 -0.26517889078E+03  0.70529003648E+03  0.50411685510E+03  0.90659239643E+03  0.46999998093E+01 0. -1.
       -5    1    3    3    0  502  0.26517889078E+03 -0.70529003648E+03 -0.29125850103E+03  0.80784124931E+03  0.46999998093E+01 0.  1.
</event>
<event>
 5   0  0.1255362E-04  0.1703829E+04  0.7818609E-02  0.8759183E-01
        2   -1    0    0  501    0  0.00000000000E+00  0.00000000000E+00  0.22785694145E+04  0.22785694145E+04  0.25500000920E-02 0. -1.
       -2   -1    0    0    0  501  0.00000000000E+00  0.00000000000E+00 -0.31851503441E+03  0.31851503442E+03  0.25500000920E-02 0.  1.
    10030    2    1    2    0    0  0.00000000000E+00  0.00000000000E+00  0.19600543801E+04  0.25970844489E+04  0.17038293523E+04 0.  0.
        1    1    3    3  502    0 -0.32051577719E+03 -0.64343042783E+03  0.16769098357E+04  0.18244888807E+04  0.50400001928E-02 0.  1.
       -1    1    3    3    0  502  0.32051577719E+03  0.64343042783E+03  0.28314454437E+03  0.77259556815E+03  0.50400001928E-02 0. -1.
</event>
<event>
 5   0  0.6615842E-05  0.1699027E+04  0.7818609E-02  0.8761919E-01
       -1   -1    0    0    0  501  0.00000000000E+00  0.00000000000E+00  0.45007636610E+03  0.45007636612E+03  0.50400001928E-02 0.  1.
        1   -1    0    0  501    0  0.00000000000E+00  0.00000000000E+00 -0.16034470082E+04  0.16034470082E+04  0.50400001928E-02 0. -1.
    10030    2    1    2    0    0  0.00000000000E+00  0.00000000000E+00 -0.11533706421E+04  0.20535233744E+04  0.16990274897E+04 0.  0.
        3    1    3    3  502    0 -0.78380267186E+03 -0.28667990660E+03 -0.38504112982E+03  0.91912386495E+03  0.10100000352E+00 0. -1.
       -3    1    3    3    0  502  0.78380267186E+03  0.28667990660E+03 -0.76832951231E+03  0.11343995094E+04  0.10100000352E+00 0.  1.
</event>
<event>
 5   0  0.1269175E-04  0.1700343E+04  0.7818609E-02  0.8761169E-01
       -2   -1    0    0    0  501  0.00000000000E+00  0.00000000000E+00  0.77771557254E+03  0.77771557255E+03  0.25500000920E-02 0.  1.
        2   -1    0    0  501    0  0.00000000000E+00  0.00000000000E+00 -0.92937756898E+03  0.92937756898E+03  0.25500000920E-02 0. -1.
    10030    2    1    2    0    0  0.00000000000E+00  0.00000000000E+00 -0.15166199644E+03  0.17070931415E+04  0.17003427986E+04 0.  0.
        2    1    3    3  502    0  0.59677040321E+03  0.52026465717E+03 -0.38686923029E+03  0.88117990728E+03  0.25500000920E-02 0. -1.
       -2    1    3    3    0  502 -0.59677040321E+03 -0.52026465717E+03  0.23520723385E+03  0.82591323425E+03  0.25500000920E-02 0.  1.
</event>
<event>
 5   0  0.6564887E-05  0.1712728E+04  0.7818609E-02  0.8754138E-01
        1   -1    0    0  501    0  0.00000000000E+00  0.00000000000E+00  0.14595698600E+04  0.14595698600E+04  0.50400001928E-02 0. -1.
       -1   -1    0    0    0  501  0.00000000000E+00  0.00000000000E+00 -0.50244911577E+03  0.50244911580E+03  0.50400001928E-02 0.  1.
    10030    2    1    2    0    0  0.00000000000E+00  0.00000000000E+00  0.95712074422E+03  0.19620189758E+04  0.17127283329E+04 0.  0.
        4    1    3    3  502    0  0.11146021291E+02 -0.36307883537E+03  0.13669411243E+04  0.14143833019E+04  0.12699999809E+01 0. -1.
       -4    1    3    3    0  502 -0.11146021291E+02  0.36307883537E+03 -0.40982038009E+03  0.54763567389E+03  0.12699999809E+01 0.  1.
</event>
<event>
 5   0  0.6834837E-05  0.1703302E+04  0.7818609E-02  0.8759483E-01
       -1   -1    0    0    0  501  0.00000000000E+00  0.00000000000E+00  0.53424867067E+03  0.53424867069E+03  0.50400001928E-02 0. -1.
        1   -1    0    0  501    0  0.00000000000E+00  0.00000000000E+00 -0.13576247287E+04  0.13576247287E+04  0.50400001928E-02 0.  1.
    10030    2    1    2    0    0  0.00000000000E+00  0.00000000000E+00 -0.82337605803E+03  0.18918733994E+04  0.17033017426E+04 0.  0.
        5    1    3    3  502    0  0.25801827603E+03  0.20916220688E+03  0.45932696103E+03  0.56685589587E+03  0.46999998093E+01 0. -1.
       -5    1    3    3    0  502 -0.25801827603E+03 -0.20916220688E+03 -0.12827030191E+04  0.13250175035E+04  0.46999998093E+01 0.  1.
</event>
<event>
 5   0  0.1333546E-04  0.1707391E+04  0.7818609E-02  0.8757160E-01
       -2   -1    0    0    0  501  0.00000000000E+00  0.00000000000E+00  0.52065820631E+03  0.52065820632E+03  0.25500000920E-02 0.  1.
        2   -1    0    0  501    0  0.00000000000E+00  0.00000000000E+00 -0.13997587857E+04  0.13997587857E+04  0.25500000920E-02 0. -1.
    10030    2    1    2    0    0  0.00000000000E+00  0.00000000000E+00 -0.87910057941E+03  0.19204169920E+04  0.17073908734E+04 0.  0.
        5    1    3    3  502    0  0.81916821483E+03  0.23939084177E+03 -0.41624644815E+03  0.94954080213E+03  0.46999998093E+01 0.  1.
       -5    1    3    3    0  502 -0.81916821483E+03 -0.23939084177E+03 -0.46285413126E+03  0.97087618991E+03  0.46999998093E+01 0. -1.
</event>
<event>
 5   0  0.6834837E-05  0.1703505E+04  0.7818609E-02  0.8759368E-01
       -1   -1    0    0    0  501  0.00000000000E+00  0.00000000000E+00  0.29928715388E+03  0.29928715392E+03  0.50400001928E-02 0. -1.
        1   -1    0    0  501    0  0.00000000000E+00  0.00000000000E+00 -0.24240346394E+04  0.24240346394E+04  0.50400001928E-02 0.  1.
    10030    2    1    2    0    0  0.00000000000E+00  0.00000000000E+00 -0.21247474855E+04  0.27233217933E+04  0.17035051255E+04 0.  0.
        5    1    3    3  502    0  0.12700919404E+03 -0.40156735146E+03 -0.22458909813E+04  0.22850461840E+04  0.46999998093E+01 0.  1.
       -5    1    3    3    0  502 -0.12700919404E+03  0.40156735146E+03  0.12114349581E+03  0.43827560929E+03  0.46999998093E+01 0. -1.
</event>
<event>
 5   0  0.6539134E-05  0.1752233E+04  0.7818609E-02  0.8732122E-01
       -1   -1    0    0    0  501  0.00000000000E+00  0.00000000000E+00  0.79312467886E+03  0.79312467888E+03  0.50400001928E-02 0. -1.
        1   -1    0    0  501    0  0.00000000000E+00  0.00000000000E+00 -0.96779217361E+03  0.96779217363E+03  0.50400001928E-02 0.  1.
    10030    2    1    2    0    0  0.00000000000E+00  0.00000000000E+00 -0.17466749475E+03  0.17609168525E+04  0.17522326979E+04 0.  0.
        2    1    3    3  502    0  0.19074762983E+03  0.57985956998E+02 -0.94469309909E+03  0.96550094819E+03  0.25500000920E-02 0.  1.
       -2    1    3    3    0  502 -0.19074762983E+03 -0.57985956998E+02  0.77002560433E+03  0.79541590431E+03  0.25500000920E-02 0. -1.
</event>
<event>
 5   0  0.1255362E-04  0.1702542E+04  0.7818609E-02  0.8759916E-01
        2   -1    0    0  501    0  0.00000000000E+00  0.00000000000E+00  0.10555598124E+04  0.10555598124E+04  0.25500000920E-02 0.  1.
       -2   -1    0    0    0  501  0.00000000000E+00  0.00000000000E+00 -0.68651951965E+03  0.68651951966E+03  0.25500000920E-02 0. -1.
    10030    2    1    2    0    0  0.00000000000E+00  0.00000000000E+00  0.36904029272E+03  0.17420793320E+04  0.17025421174E+04 0.  0.
        1    1    3    3  502    0 -0.45867671541E+03  0.63367527765E+03 -0.15903542806E+03  0.79826120673E+03  0.50400001928E-02 0.  1.
       -1    1    3    3    0  502  0.45867671541E+03 -0.63367527765E+03  0.52807572078E+03  0.94381812531E+03  0.50400001928E-02 0. -1.
</event>
<event>
 5   0  0.6564887E-05  0.1699913E+04  0.7818609E-02  0.8761414E-01
        1   -1    0    0  501    0  0.00000000000E+00  0.00000000000E+00  0.22243439817E+04  0.22243439817E+04  0.50400001928E-02 0.  1.
       -1   -1    0    0    0  501  0.00000000000E+00  0.00000000000E+00 -0.32478154599E+03  0.32478154603E+03  0.50400001928E-02 0. -1.
    10030    2    1    2    0    0  0.00000000000E+00  0.00000000000E+00  0.18995624357E+04  0.25491255277E+04  0.16999127945E+04 0.  0.
        4    1    3    3  502    0 -0.41809372071E+03 -0.73476971463E+03  0.81789325271E+03  0.11762822274E+04  0.12699999809E+01 0.  1.
       -4    1    3    3    0  502  0.41809372071E+03  0.73476971463E+03  0.10816691829E+04  0.13728433003E+04  0.12699999809E+01 0. -1.
</event>
<event>
 5   0  0.1255362E-04  0.1701557E+04  0.7818609E-02  0.8760477E-01
       -2   -1    0    0    0  501  0.00000000000E+00  0.00000000000E+00  0.71519561367E+03  0.71519561367E+03  0.25500000920E-02 0. -1.
        2   -1    0    0  501    0  0.00000000000E+00  0.00000000000E+00 -0.10120640860E+04  0.10120640860E+04  0.25500000920E-02 0.  1.
    10030    2    1    2    0    0  0.00000000000E+00  0.00000000000E+00 -0.29686847231E+03  0.17272596997E+04  0.17015566932E+04 0.  0.
        1    1    3    3  502    0  0.75101648446E+03  0.31081908760E+03  0.10673821102E+03  0.81977271903E+03  0.50400001928E-02 0. -1.
       -1    1    3    3    0  502 -0.75101648446E+03 -0.31081908760E+03 -0.40360668333E+03  0.90748698063E+03  0.50400001928E-02 0.  1.
</event>
<event>
 5   0  0.1255362E-04  0.1703684E+04  0.7818609E-02  0.8759266E-01
        2   -1    0    0  501    0  0.00000000000E+00  0.00000000000E+00  0.10038348119E+04  0.10038348119E+04  0.25500000920E-02 0.  1.
       -2   -1    0    0    0  501  0.00000000000E+00  0.00000000000E+00 -0.72286289580E+03  0.72286289580E+03  0.25500000920E-02 0. -1.
    10030    2    1    2    0    0  0.00000000000E+00  0.00000000000E+00  0.28097191615E+03  0.17266977078E+04  0.17036841715E+04 0.  0.
        1    1    3    3  502    0  0.16834967731E+02 -0.19914707563E+03  0.97973673935E+03  0.99991352243E+03  0.50400001928E-02 0.  1.
       -1    1    3    3    0  502 -0.16834967731E+02  0.19914707563E+03 -0.69876482320E+03  0.72678418533E+03  0.50400001928E-02 0. -1.
</event>
<event>
 5   0  0.6564887E-05  0.1701796E+04  0.7818609E-02  0.8760341E-01
        1   -1    0    0  501    0  0.00000000000E+00  0.00000000000E+00  0.80903739920E+03  0.80903739921E+03  0.50400001928E-02 0.  1.
       -1   -1    0    0    0  501  0.00000000000E+00  0.00000000000E+00 -0.89492481518E+03  0.89492481519E+03  0.50400001928E-02 0. -1.
    10030    2    1    2    0    0  0.00000000000E+00  0.00000000000E+00 -0.85887415980E+02  0.17039622144E+04  0.17017962804E+04 0.  0.
        4    1    3    3  502    0  0.57341069171E+03  0.30694253710E+03 -0.59228803981E+03  0.87967055051E+03  0.12699999809E+01 0. -1.
       -4    1    3    3    0  502 -0.57341069171E+03 -0.30694253710E+03  0.50640062383E+03  0.82429166389E+03  0.12699999809E+01 0.  1.
</event>
<event>
 5   0  0.6615842E-05  0.1640665E+04  0.7818609E-02  0.8795948E-01
       -1   -1    0    0    0  501  0.00000000000E+00  0.00000000000E+00  0.67482496632E+03  0.67482496634E+03  0.50400001928E-02 0.  1.
        1   -1    0    0  501    0  0.00000000000E+00  0.00000000000E+00 -0.99721533029E+03  0.99721533031E+03  0.50400001928E-02 0. -1.
    10030    2    1    2    0    0  0.00000000000E+00  0.00000000000E+00 -0.32239036397E+03  0.16720402966E+04  0.16406654768E+04 0.  0.
        3    1    3    3  502    0  0.72135042694E+03 -0.29556023297E+03  0.99117502792E+02  0.78582859411E+03  0.10100000352E+00 0.  1.
       -3    1    3    3    0  502 -0.72135042694E+03  0.29556023297E+03 -0.42150786677E+03  0.88621170253E+03  0.10100000352E+00 0. -1.
</event>
<event>
 5   0  0.1285639E-04  0.1724578E+04  0.7818609E-02  0.8747470E-01
       -2   -1    0    0    0  501  0.00000000000E+00  0.00000000000E+00  0.92424739884E+03  0.92424739885E+03  0.25500000920E-02 0.  1.
        2   -1    0    0  501    0  0.00000000000E+00  0.00000000000E+00 -0.80448400548E+03  0.80448400548E+03  0.25500000920E-02 0. -1.
    10030    2    1    2    0    0  0.00000000000E+00  0.00000000000E+00  0.11976339337E+03  0.17287314043E+04  0.17245779188E+04 0.  0.
        4    1    3    3  502    0  0.11785660022E+03  0.41840648034E+03  0.80638088110E+03  0.91608181911E+03  0.12699999809E+01 0.  1.
       -4    1    3    3    0  502 -0.11785660022E+03 -0.41840648034E+03 -0.68661748773E+03  0.81264958522E+03  0.12699999809E+01 0. -1.
</event>
<event>
 5   0  0.6564887E-05  0.1706619E+04  0.7818609E-02  0.8757598E-01
       -1   -1    0    0    0  501  0.00000000000E+00  0.00000000000E+00  0.45823694348E+03  0.45823694351E+03  0.50400001928E-02 0. -1.
        1   -1    0    0  501    0  0.00000000000E+00  0.00000000000E+00 -0.15889975806E+04  0.15889975806E+04  0.50400001928E-02 0.  1.
    10030    2    1    2    0    0  0.00000000000E+00  0.00000000000E+00 -0.11307606371E+04  0.20472345241E+04  0.17066193419E+04 0.  0.
        4    1    3    3  502    0  0.21442037925E+03  0.71819690006E+03 -0.76113103426E+02  0.75337753067E+03  0.12699999809E+01 0. -1.
       -4    1    3    3    0  502 -0.21442037925E+03 -0.71819690006E+03 -0.10546475337E+04  0.12938569935E+04  0.12699999809E+01 0.  1.
</event>
<event>
 5   0  0.6601906E-05  0.1700163E+04  0.7818609E-02  0.8761271E-01
       -1   -1    0    0    0  501  0.00000000000E+00  0.00000000000E+00  0.61773612574E+03  0.61773612576E+03  0.50400001928E-02 0. -1.
        1   -1    0    0  501    0  0.00000000000E+00  0.00000000000E+00 -0.11698179728E+04  0.11698179728E+04  0.50400001928E-02 0.  1.
    10030    2    1    2    0    0  0.00000000000E+00  0.00000000000E+00 -0.55208184703E+03  0.17875540985E+04  0.17001633126E+04 0.  0.
        1    1    3    3  502    0 -0.12154938523E+03 -0.83573489168E+03 -0.17404002958E+03  0.86227431491E+03  0.50400001928E-02 0.  1.
       -1    1    3    3    0  502  0.12154938523E+03  0.83573489168E+03 -0.37804181744E+03  0.92527978363E+03  0.50400001928E-02 0. -1.
</event>
<event>
 5   0  0.6834837E-05  0.1688516E+04  0.7818609E-02  0.8767941E-01
        1   -1    0    0  501    0  0.00000000000E+00  0.00000000000E+00  0.14317751773E+04  0.14317751773E+04  0.50400001928E-02 0.  1.
       -1   -1    0    0    0  501  0.00000000000E+00  0.00000000000E+00 -0.49782363814E+03  0.49782363817E+03  0.50400001928E-02 0. -1.
    10030    2    1    2    0    0  0.00000000000E+00  0.00000000000E+00  0.93395153912E+03  0.19295988154E+04  0.16885159493E+04 0.  0.
        5    1    3    3  502    0  0.77159243617E+03 -0.33700690012E+03  0.39633674981E+03  0.93060918088E+03  0.46999998093E+01 0. -1.
       -5    1    3    3    0  502 -0.77159243617E+03  0.33700690012E+03  0.53761478931E+03  0.99898963457E+03  0.46999998093E+01 0.  1.
</event>
<event>
 5   0  0.1285639E-04  0.1697700E+04  0.7818609E-02  0.8762677E-01
       -2   -1    0    0    0  501  0.00000000000E+00  0.00000000000E+00  0.43506450455E+03  0.43506450455E+03  0.25500000920E-02 0. -1.
        2   -1    0    0  501    0  0.00000000000E+00  0.00000000000E+00 -0.16561834608E+04  0.16561834608E+04  0.25500000920E-02 0.  1.
    10030    2    1    2    0    0  0.00000000000E+00  0.00000000000E+00 -0.12211189563E+04  0.20912479654E+04  0.16977003703E+04 0.  0.
        4    1    3    3  502    0 -0.71966361110E+03  0.21041909556E+03 -0.12037698823E+03  0.75939722222E+03  0.12699999809E+01 0. -1.
       -4    1    3    3    0  502  0.71966361110E+03 -0.21041909556E+03 -0.11007419680E+04  0.13318507432E+04  0.12699999809E+01 0.  1.
</event>
<event>
 5   0  0.1269175E-04  0.1695647E+04  0.7818609E-02  0.8763851E-01
       -2   -1    0    0    0  501  0.00000000000E+00  0.00000000000E+00  0.89803362452E+03  0.89803362452E+03  0.25500000920E-02 0. -1.
        2   -1    0    0  501    0  0.00000000000E+00  0.00000000000E+00 -0.80042064744E+03  0.80042064744E+03  0.25500000920E-02 0.  1.
    10030    2    1    2    0    0  0.00000000000E+00  0.00000000000E+00  0.97612977080E+02  0.16984542720E+04  0.16956469623E+04 0.  0.
        2    1    3    3  502    0 -0.38360776722E+03 -0.74643995269E+02  0.80243368876E+03  0.89253933804E+03  0.25500000920E-02 0. -1.
       -2    1    3    3    0  502  0.38360776722E+03  0.74643995269E+02 -0.70482071168E+03  0.80591493392E+03  0.25500000920E-02 0.  1.
</event>
<event>
 5   0  0.6834837E-05  0.1705886E+04  0.7818609E-02  0.8758014E-01
       -1   -1    0    0    0  501  0.00000000000E+00  0.00000000000E+00  0.90042774419E+03  0.90042774421E+03  0.50400001928E-02 0. -1.
        1   -1    0    0  501    0  0.00000000000E+00  0.00000000000E+00 -0.80796240912E+03  0.80796240914E+03  0.50400001928E-02 0.  1.
    10030    2    1    2    0    0  0.00000000000E+00  0.00000000000E+00  0.92465335074E+02  0.17083901533E+04  0.17058860096E+04 0.  0.
        5    1    3    3  502    0 -0.62218562592E+02 -0.16036114953E+03  0.88286478437E+03  0.89947716219E+03  0.46999998093E+01 0. -1.
       -5    1    3    3    0  502  0.62218562592E+02  0.16036114953E+03 -0.79039944930E+03  0.80891299116E+03  0.46999998093E+01 0.  1.
</event>
<event>
 5   0  0.6601906E-05  0.1699032E+04  0.7818609E-02  0.8761917E-01
       -1   -1    0    0    0  501  0.00000000000E+00  0.00000000000E+00  0.68714074387E+03  0.68714074389E+03  0.50400001928E-02 0. -1.
        1   -1    0    0  501    0  0.00000000000E+00  0.00000000000E+00 -0.10502613882E+04  0.10502613882E+04  0.50400001928E-02 0.  1.
    10030    2    1    2    0    0  0.00000000000E+00  0.00000000000E+00 -0.36312064432E+03  0.17374021321E+04  0.16990319498E+04 0.  0.
        1    1    3    3  502    0  0.71336005061E+03 -0.33920111064E+03  0.13812984295E+03  0.80188515936E+03  0.50400001928E-02 0.  1.
       -1    1    3    3    0  502 -0.71336005061E+03  0.33920111064E+03 -0.50125048727E+03  0.93551697273E+03  0.50400001928E-02 0. -1.
</event>
<event>
 5   0  0.1393870E-04  0.1714177E+04  0.7818609E-02  0.8753320E-01
        2   -1    0    0  501    0  0.00000000000E+00  0.00000000000E+00  0.14846339903E+04  0.14846339903E+04  0.25500000920E-02 0. -1.
       -2   -1    0    0    0  501  0.00000000000E+00  0.00000000000E+00 -0.49480229692E+03  0.49480229692E+03  0.25500000920E-02 0.  1.
    10030    2    1    2    0    0  0.00000000000E+00  0.00000000000E+00  0.98983169336E+03  0.19794362872E+04  0.17141765469E+04 0.  0.
        3    1    3    3  502    0  0.50728367081E+03 -0.24398143876E+03  0.12412567773E+04  0.13629314225E+04  0.10100000352E+00 0. -1.
       -3    1    3    3    0  502 -0.50728367081E+03  0.24398143876E+03 -0.25142508394E+03  0.61650486467E+03  0.10100000352E+00 0.  1.
</event>
<event>
 5   0  0.1285639E-04  0.1698569E+04  0.7818609E-02  0.8762181E-01
        2   -1    0    0  501    0  0.00000000000E+00  0.00000000000E+00  0.11890187625E+04  0.11890187625E+04  0.25500000920E-02 0. -1.
       -2   -1    0    0    0  501  0.00000000000E+00  0.00000000000E+00 -0.60662158725E+03  0.60662158725E+03  0.25500000920E-02 0.  1.
    10030    2    1    2    0    0  0.00000000000E+00  0.00000000000E+00  0.58239717523E+03  0.17956403497E+04  0.16985693380E+04 0.  0.
        4    1    3    3  502    0  0.21473349487E+02  0.71491606727E+02  0.11855430560E+04  0.11878914534E+04  0.12699999809E+01 0. -1.
       -4    1    3    3    0  502 -0.21473349487E+02 -0.71491606727E+02 -0.60314588078E+03  0.60774889631E+03  0.12699999809E+01 0.  1.
</event>
<event>
 5   0  0.1285639E-04  0.1714025E+04  0.7818609E-02  0.8753406E-01
        2   -1    0    0  501    0  0.00000000000E+00  0.00000000000E+00  0.11342154219E+04  0.11342154219E+04  0.25500000920E-02 0.  1.
       -2   -1    0    0    0  501  0.00000000000E+00  0.00000000000E+00 -0.64755796007E+03  0.64755796007E+03  0.25500000920E-02 0. -1.
    10030    2    1    2    0    0  0.00000000000E+00  0.00000000000E+00  0.48665746187E+03  0.17817733820E+04  0.17140247663E+04 0.  0.
        4    1    3    3  502    0 -0.80797335511E+03 -0.28044618835E+03  0.30024318412E+03  0.90643178984E+03  0.12699999809E+01 0. -1.
       -4    1    3    3    0  502  0.80797335511E+03  0.28044618835E+03  0.18641427775E+03  0.87534159217E+03  0.12699999809E+01 0.  1.
</event>
<event>
 5   0  0.6615842E-05  0.1700821E+04  0.7818609E-02  0.8760896E-01
       -1   -1    0    0    0  501  0.00000000000E+00  0.00000000000E+00  0.10988876893E+04  0.10988876893E+04  0.50400001928E-02 0.  1.
        1   -1    0    0  501    0  0.00000000000E+00  0.00000000000E+00 -0.65811805055E+03  0.65811805057E+03  0.50400001928E-02 0. -1.
    10030    2    1    2    0    0  0.00000000000E+00  0.00000000000E+00  0.44076963873E+03  0.17570057399E+04  0.17008207711E+04 0.  0.
        3    1    3    3  502    0 -0.61947308927E+03  0.30552193977E+03 -0.29209507617E+03  0.74994006943E+03  0.10100000352E+00 0. -1.
       -3    1    3    3    0  502  0.61947308927E+03 -0.30552193977E+03  0.73286471490E+03  0.10070656704E+04  0.10100000352E+00 0.  1.
</event>
<event>
 5   0  0.6615842E-05  0.1623359E+04  0.7818609E-02  0.8806325E-01
       -1   -1    0    0    0  501  0.00000000000E+00  0.00000000000E+00  0.65722397062E+03  0.65722397064E+03  0.50400001928E-02 0.  1.
        1   -1    0    0  501    0  0.00000000000E+00  0.00000000000E+00 -0.10024344898E+04  0.10024344898E+04  0.50400001928E-02 0. -1.
    10030    2    1    2    0    0  0.00000000000E+00  0.00000000000E+00 -0.34521051918E+03  0.16596584604E+04  0.16233594497E+04 0.  0.
        3    1    3    3  502    0 -0.57891421960E+03 -0.26919745370E+03 -0.68502615875E+03  0.93641325872E+03  0.10100000352E+00 0. -1.
       -3    1    3    3    0  502  0.57891421960E+03  0.26919745370E+03  0.33981563957E+03  0.72324520173E+03  0.10100000352E+00 0.  1.
</event>
<event>
 5   0  0.6601906E-05  0.1700529E+04  0.7818609E-02  0.8761063E-01
        1   -1    0    0  501    0  0.00000000000E+00  0.00000000000E+00  0.15921775039E+04  0.15921775039E+04  0.50400001928E-02 0.  1.
       -1   -1    0    0    0  501  0.00000000000E+00  0.00000000000E+00 -0.45406367012E+03  0.45406367015E+03  0.50400001928E-02 0. -1.
    10030    2    1    2    0    0  0.00000000000E+00  0.00000000000E+00  0.11381138338E+04  0.20462411741E+04  0.17005292834E+04 0.  0.
        1    1    3    3  502    0  0.30846492564E+02 -0.73168644726E+03  0.49219680069E+02  0.73398851499E+03  0.50400001928E-02 0. -1.
       -1    1    3    3    0  502 -0.30846492564E+02  0.73168644726E+03  0.10888941537E+04  0.13122526591E+04  0.50400001928E-02 0.  1.
</event>
<event>
 5   0  0.6539134E-05  0.1703975E+04  0.7818609E-02  0.8759100E-01
        1   -1    0    0  501    0  0.00000000000E+00  0.00000000000E+00  0.29470441982E+04  0.29470441982E+04  0.50400001928E-02 0.  1.
       -1   -1    0    0    0  501  0.00000000000E+00  0.00000000000E+00 -0.24630884535E+03  0.24630884540E+03  0.50400001928E-02 0. -1.
    10030    2    1    2    0    0  0.00000000000E+00  0.00000000000E+00  0.27007353528E+04  0.31933530436E+04  0.17039754150E+04 0.  0.
        2    1    3    3  502    0  0.65428510016E+03 -0.46586139142E+03  0.18829677136E+04  0.20471158342E+04  0.25500000920E-02 0.  1.
       -2    1    3    3    0  502 -0.65428510016E+03  0.46586139142E+03  0.81776763920E+03  0.11462372093E+04  0.25500000920E-02 0. -1.
</event>
<event>
 5   0  0.1393870E-04  0.1697557E+04  0.7818609E-02  0.8762759E-01
        2   -1    0    0  501    0  0.00000000000E+00  0.00000000000E+00  0.51387735731E+03  0.51387735732E+03  0.25500000920E-02 0.  1.
       -2   -1    0    0    0  501  0.00000000000E+00  0.00000000000E+00 -0.14019402108E+04  0.14019402108E+04  0.25500000920E-02 0. -1.
    10030    2    1    2    0    0  0.00000000000E+00  0.00000000000E+00 -0.88806285350E+03  0.19158175681E+04  0.16975574578E+04 0.  0.
        3    1    3    3  502    0  0.62811109585E+03  0.51120932687E+03 -0.15726105062E+03  0.82497852872E+03  0.10100000352E+00 0.  1.
       -3    1    3    3    0  502 -0.62811109585E+03 -0.51120932687E+03 -0.73080180288E+03  0.10908390394E+04  0.10100000352E+00 0. -1.
</event>
<event>
 5   0  0.1393870E-04  0.1717954E+04  0.7818609E-02  0.8751190E-01
       -2   -1    0    0    0  501  0.00000000000E+00  0.00000000000E+00  0.97185710115E+03  0.97185710115E+03  0.25500000920E-02 0.  1.
        2   -1    0    0  501    0  0.00000000000E+00  0.00000000000E+00 -0.75920787785E+03  0.75920787785E+03  0.25500000920E-02 0. -1.
    10030    2    1    2    0    0  0.00000000000E+00  0.00000000000E+00  0.21264922330E+03  0.17310649790E+04  0.17179540941E+04 0.  0.
        3    1    3    3  502    0 -0.86988477212E+02  0.51878719560E+03 -0.57792660731E+03  0.78147701382E+03  0.10100000352E+00 0. -1.
       -3    1    3    3    0  502  0.86988477212E+02 -0.51878719560E+03  0.79057583061E+03  0.94958796519E+03  0.10100000352E+00 0.  1.
</event>
<event>
 5   0  0.6615842E-05  0.1697974E+04  0.7818609E-02  0.8762521E-01
       -1   -1    0    0    0  501  0.00000000000E+00  0.00000000000E+00  0.73337981472E+03  0.73337981474E+03  0.50400001928E-02 0.  1.
        1   -1    0    0  501    0  0.00000000000E+00  0.00000000000E+00 -0.98281761467E+03  0.98281761468E+03  0.50400001928E-02 0. -1.
    10030    2    1    2    0    0  0.00000000000E+00  0.00000000000E+00 -0.24943779994E+03  0.17161974294E+04  0.16979736160E+04 0.  0.
        3    1    3    3  502    0 -0.84550523038E+03 -0.38952718136E+02 -0.19162742732E+03  0.86782342095E+03  0.10100000352E+00 0.  1.
       -3    1    3    3    0  502  0.84550523038E+03  0.38952718136E+02 -0.57810372622E+02  0.84837400846E+03  0.10100000352E+00 0. -1.
</event>
<event>
 5   0  0.1269175E-04  0.1702021E+04  0.7818609E-02  0.8760213E-01
       -2   -1    0    0    0  501  0.00000000000E+00  0.00000000000E+00  0.10534835083E+04  0.10534835083E+04  0.25500000920E-02 0. -1.
        2   -1    0    0  501    0  0.00000000000E+00  0.00000000000E+00 -0.68745127292E+03  0.68745127293E+03  0.25500000920E-02 0.  1.
    10030    2    1    2    0    0  0.00000000000E+00  0.00000000000E+00  0.36603223539E+03  0.17409347812E+04  0.17020206565E+04 0.  0.
        2    1    3    3  502    0  0.11101429556E+03 -0.77412739667E+03  0.52627968342E+03  0.94263869287E+03  0.25500000920E-02 0. -1.
       -2    1    3    3    0  502 -0.11101429556E+03  0.77412739667E+03 -0.16024744803E+03  0.79829608837E+03  0.25500000920E-02 0.  1.
</event>
<event>
 5   0  0.1255362E-04  0.1697910E+04  0.7818609E-02  0.8762557E-01
        2   -1    0    0  501    0  0.00000000000E+00  0.00000000000E+00  0.17786363083E+04  0.17786363083E+04  0.25500000920E-02 0.  1.
       -2   -1    0    0    0  501  0.00000000000E+00  0.00000000000E+00 -0.40521187381E+03  0.40521187382E+03  0.25500000920E-02 0. -1.
    10030    2    1    2    0    0  0.00000000000E+00  0.00000000000E+00  0.13734244345E+04  0.21838481822E+04  0.16979099521E+04 0.  0.
        1    1    3    3  502    0 -0.56964012582E+03  0.28633756890E+03  0.14077239071E+04  0.15453691064E+04  0.50400001928E-02 0.  1.
       -1    1    3    3    0  502  0.56964012582E+03 -0.28633756890E+03 -0.34299472608E+02  0.63847907574E+03  0.50400001928E-02 0. -1.
</event>
<event>
 5   0  0.1285639E-04  0.1666287E+04  0.7818609E-02  0.8780829E-01
       -2   -1    0    0    0  501  0.00000000000E+00  0.00000000000E+00  0.85304551263E+03  0.85304551263E+03  0.25500000920E-02 0. -1.
        2   -1    0    0  501    0  0.00000000000E+00  0.00000000000E+00 -0.81370538489E+03  0.81370538489E+03  0.25500000920E-02 0.  1.
    10030    2    1    2    0    0  0.00000000000E+00  0.00000000000E+00  0.39340127740E+02  0.16667508975E+04  0.16662865626E+04 0.  0.
        4    1    3    3  502    0 -0.46540931529E+03  0.17014267429E+03 -0.65027156851E+03  0.81756289427E+03  0.12699999809E+01 0.  1.
       -4    1    3    3    0  502  0.46540931529E+03 -0.17014267429E+03  0.68961169625E+03  0.84918800325E+03  0.12699999809E+01 0. -1.
</event>
<event>
 5   0  0.6834837E-05  0.1689346E+04  0.7818609E-02  0.8767464E-01
       -1   -1    0    0    0  501  0.00000000000E+00  0.00000000000E+00  0.20251716123E+04  0.20251716123E+04  0.50400001928E-02 0.  1.
        1   -1    0    0  501    0  0.00000000000E+00  0.00000000000E+00 -0.35230212680E+03  0.35230212684E+03  0.50400001928E-02 0. -1.
    10030    2    1    2    0    0  0.00000000000E+00  0.00000000000E+00  0.16728694855E+04  0.23774737391E+04  0.16893457505E+04 0.  0.
        5    1    3    3  502    0  0.61114313226E+02  0.35823182116E+03 -0.23663799912E+03  0.43368724861E+03  0.46999998093E+01 0. -1.
       -5    1    3    3    0  502 -0.61114313226E+02 -0.35823182116E+03  0.19095074846E+04  0.19437864905E+04  0.46999998093E+01 0.  1.
</event>
<event>
 5   0  0.1255362E-04  0.1695455E+04  0.7818609E-02  0.8763961E-01
        2   -1    0    0  501    0  0.00000000000E+00  0.00000000000E+00  0.22814852464E+04  0.22814852464E+04  0.25500000920E-02 0.  1.
       -2   -1    0    0    0  501  0.00000000000E+00  0.00000000000E+00 -0.31498871216E+03  0.31498871217E+03  0.25500000920E-02 0. -1.
    10030    2    1    2    0    0  0.00000000000E+00  0.00000000000E+00  0.19664965342E+04  0.25964739586E+04  0.16954552186E+04 0.  0.
        1    1    3    3  502    0 -0.73316624749E+03  0.23268799043E+03  0.15289317039E+04  0.17115223056E+04  0.50400001928E-02 0.  1.
       -1    1    3    3    0  502  0.73316624749E+03 -0.23268799043E+03  0.43756483037E+03  0.88495165301E+03  0.50400001928E-02 0. -1.
</event>
<event>
 5   0  0.1393870E-04  0.1705064E+04  0.7818609E-02  0.8758482E-01
       -2   -1    0    0    0  501  0.00000000000E+00  0.00000000000E+00  0.11729740093E+04  0.11729740093E+04  0.25500000920E-02 0.  1.
        2   -1    0    0  501    0  0.00000000000E+00  0.00000000000E+00 -0.61963059851E+03  0.61963059851E+03  0.25500000920E-02 0. -1.
    10030    2    1    2    0    0  0.00000000000E+00  0.00000000000E+00  0.55334341083E+03  0.17926046079E+04  0.17050637377E+04 0.  0.
        3    1    3    3  502    0  0.77498443045E+03 -0.35068292973E+03  0.21690967925E+03  0.87785488766E+03  0.10100000352E+00 0. -1.
       -3    1    3    3    0  502 -0.77498443045E+03  0.35068292973E+03  0.33643373157E+03  0.91474972019E+03  0.10100000352E+00 0.  1.
</event>
<event>
 5   0  0.6564887E-05  0.1633669E+04  0.7818609E-02  0.8800127E-01
        1   -1    0    0  501    0  0.00000000000E+00  0.00000000000E+00  0.76635651658E+03  0.76635651660E+03  0.50400001928E-02 0.  1.
       -1   -1    0    0    0  501  0.00000000000E+00  0.00000000000E+00 -0.87063704908E+03  0.87063704909E+03  0.50400001928E-02 0. -1.
    10030    2    1    2    0    0  0.00000000000E+00  0.00000000000E+00 -0.10428053250E+03  0.16369935657E+04  0.16336687255E+04 0.  0.
        4    1    3    3  502    0 -0.28802137302E+03 -0.74660259782E+03  0.11203766747E+03  0.80803824305E+03  0.12699999809E+01 0.  1.
       -4    1    3    3    0  502  0.28802137302E+03  0.74660259782E+03 -0.21631819997E+03  0.82895532264E+03  0.12699999809E+01 0. -1.
</event>
<event>
 5   0  0.1333546E-04  0.1716549E+04  0.7818609E-02  0.8751982E-01
        2   -1    0    0  501    0  0.00000000000E+00  0.00000000000E+00  0.18608567612E+04  0.18608567612E+04  0.25500000920E-02 0. -1.
       -2   -1    0    0    0  501  0.00000000000E+00  0.00000000000E+00 -0.39585820783E+03  0.39585820784E+03  0.25500000920E-02 0.  1.
    10030    2    1    2    0    0  0.00000000000E+00  0.00000000000E+00  0.14649985534E+04  0.22567149690E+04  0.17165493556E+04 0.  0.
        5    1    3    3  502    0 -0.53901028087E+02  0.37852213366E+03  0.17426920492E+04  0.17841474140E+04  0.46999998093E+01 0. -1.
       -5    1    3    3    0  502  0.53901028087E+02 -0.37852213366E+03 -0.27769349580E+03  0.47256755508E+03  0.46999998093E+01 0.  1.
</event>
<event>
 5   0  0.1269175E-04  0.1699408E+04  0.7818609E-02  0.8761702E-01
       -2   -1    0    0    0  501  0.00000000000E+00  0.00000000000E+00  0.48630343974E+03  0.48630343974E+03  0.25500000920E-02 0.  1.
        2   -1    0    0  501    0  0.00000000000E+00  0.00000000000E+00 -0.14846632900E+04  0.14846632900E+04  0.25500000920E-02 0. -1.
    10030    2    1    2    0    0  0.00000000000E+00  0.00000000000E+00 -0.99835985022E+03  0.19709667297E+04  0.16994079731E+04 0.  0.
        2    1    3    3  502    0  0.40039891465E+03  0.25714224837E+02  0.36951923578E+03  0.54545850239E+03  0.25500000920E-02 0.  1.
       -2    1    3    3    0  502 -0.40039891465E+03 -0.25714224837E+02 -0.13678790860E+04  0.14255082273E+04  0.25500000920E-02 0. -1.
</event>
<event>
 5   0  0.1269175E-04  0.1700329E+04  0.7818609E-02  0.8761177E-01
       -2   -1    0    0    0  501  0.00000000000E+00  0.00000000000E+00  0.48774801761E+03  0.48774801762E+03  0.25500000920E-02 0.  1.
        2   -1    0    0  501    0  0.00000000000E+00  0.00000000000E+00 -0.14818706289E+04  0.14818706289E+04  0.25500000920E-02 0. -1.
    10030    2    1    2    0    0  0.00000000000E+00  0.00000000000E+00 -0.99412261124E+03  0.19696186465E+04  0.17003287466E+04 0.  0.
        2    1    3    3  502    0  0.42832977441E+03 -0.15587735727E+03 -0.13283642561E+04  0.14043915918E+04  0.25500000920E-02 0. -1.
       -2    1    3    3    0  502 -0.42832977441E+03  0.15587735727E+03  0.33424164489E+03  0.56522705468E+03  0.25500000920E-02 0.  1.
</event>
<event>
 5   0  0.6615842E-05  0.1699708E+04  0.7818609E-02  0.8761531E-01
       -1   -1    0    0    0  501  0.00000000000E+00  0.00000000000E+00  0.49473883219E+03  0.49473883222E+03  0.50400001928E-02 0.  1.
        1   -1    0    0  501    0  0.00000000000E+00  0.00000000000E+00 -0.14598656647E+04  0.14598656647E+04  0.50400001928E-02 0. -1.
    10030    2    1    2    0    0  0.00000000000E+00  0.00000000000E+00 -0.96512683250E+03  0.19546044969E+04  0.16997084858E+04 0.  0.
        3    1    3    3  502    0  0.16795288702E+03 -0.18174580835E+01  0.47546178988E+03  0.50425727486E+03  0.10100000352E+00 0.  1.
       -3    1    3    3    0  502 -0.16795288702E+03  0.18174580835E+01 -0.14405886224E+04  0.14503472221E+04  0.10100000352E+00 0. -1.
</event>
<event>
 5   0  0.6539134E-05  0.1698410E+04  0.7818609E-02  0.8762272E-01
       -1   -1    0    0    0  501  0.00000000000E+00  0.00000000000E+00  0.83480267222E+03  0.83480267223E+03  0.50400001928E-02 0. -1.
        1   -1    0    0  501    0  0.00000000000E+00  0.00000000000E+00 -0.86385546715E+03  0.86385546716E+03  0.50400001928E-02 0.  1.
    10030    2    1    2    0    0  0.00000000000E+00  0.00000000000E+00 -0.29052794930E+02  0.16986581394E+04  0.16984096707E+04 0.  0.
        2    1    3    3  502    0 -0.68428595619E+03 -0.32049715349E+03 -0.40211780919E+03  0.85595819273E+03  0.25500000920E-02 0.  1.
       -2    1    3    3    0  502  0.68428595619E+03  0.32049715349E+03  0.37306501426E+03  0.84269994666E+03  0.25500000920E-02 0. -1.
</event>
<event>
 5   0  0.1255362E-04  0.1697982E+04  0.7818609E-02  0.8762516E-01
        2   -1    0    0  501    0  0.00000000000E+00  0.00000000000E+00  0.38586555830E+03  0.38586555831E+03  0.25500000920E-02 0. -1.
       -2   -1    0    0    0  501  0.00000000000E+00  0.00000000000E+00 -0.18679715596E+04  0.18679715596E+04  0.25500000920E-02 0.  1.
    10030    2    1    2    0    0  0.00000000000E+00  0.00000000000E+00 -0.14821060013E+04  0.22538371179E+04  0.16979822010E+04 0.  0.
        1    1    3    3  502    0 -0.41014515322E+03  0.49239955829E+03 -0.14802274403E+04  0.16129940008E+04  0.50400001928E-02 0.  1.
       -1    1    3    3    0  502  0.41014515322E+03 -0.49239955829E+03 -0.18785610257E+01  0.64084311710E+03  0.50400001928E-02 0. -1.
</event>
<event>
 5   0  0.6539134E-05  0.1706210E+04  0.7818609E-02  0.8757831E-01
       -1   -1    0    0    0  501  0.00000000000E+00  0.00000000000E+00  0.66800703176E+03  0.66800703178E+03  0.50400001928E-02 0. -1.
        1   -1    0    0  501    0  0.00000000000E+00  0.00000000000E+00 -0.10894915223E+04  0.10894915223E+04  0.50400001928E-02 0.  1.
    10030    2    1    2    0    0  0.00000000000E+00  0.00000000000E+00 -0.42148449049E+03  0.17574985540E+04  0.17062098323E+04 0.  0.
        2    1    3    3  502    0 -0.92745550822E+02 -0.63604722752E+03  0.36703805331E+03  0.74018561551E+03  0.25500000920E-02 0. -1.
       -2    1    3    3    0  502  0.92745550822E+02  0.63604722752E+03 -0.78852254380E+03  0.10173129385E+04  0.25500000920E-02 0.  1.
</event>
<event>
 5   0  0.6834837E-05  0.1707104E+04  0.7818609E-02  0.8757323E-01
        1   -1    0    0  501    0  0.00000000000E+00  0.00000000000E+00  0.16388068406E+04  0.16388068407E+04  0.50400001928E-02 0. -1.
       -1   -1    0    0    0  501  0.00000000000E+00  0.00000000000E+00 -0.44456165889E+03  0.44456165892E+03  0.50400001928E-02 0.  1.
    10030    2    1    2    0    0  0.00000000000E+00  0.00000000000E+00  0.11942451818E+04  0.20833684996E+04  0.17071036146E+04 0.  0.
        5    1    3    3  502    0 -0.32862968054E+03  0.71365968248E+02 -0.36028832743E+03  0.49286949311E+03  0.46999998093E+01 0.  1.
       -5    1    3    3    0  502  0.32862968054E+03 -0.71365968248E+02  0.15545335092E+04  0.15904990065E+04  0.46999998093E+01 0. -1.
</event>
<event>
 5   0  0.1333546E-04  0.1704278E+04  0.7818609E-02  0.8758928E-01
       -2   -1    0    0    0  501  0.00000000000E+00  0.00000000000E+00  0.55757816419E+03  0.55757816419E+03  0.25500000920E-02 0.  1.
        2   -1    0    0  501    0  0.00000000000E+00  0.00000000000E+00 -0.13023116643E+04  0.13023116643E+04  0.25500000920E-02 0. -1.
    10030    2    1    2    0    0  0.00000000000E+00  0.00000000000E+00 -0.74473350015E+03  0.18598898285E+04  0.17042776147E+04 0.  0.
        5    1    3    3  502    0  0.78543506886E+03 -0.29553662351E+03 -0.53374853999E+03  0.99456509951E+03  0.46999998093E+01 0. -1.
       -5    1    3    3    0  502 -0.78543506886E+03  0.29553662351E+03 -0.21098496016E+03  0.86532472902E+03  0.46999998093E+01 0.  1.
</event>
<event>
 5   0  0.6539134E-05  0.1705653E+04  0.7818609E-02  0.8758147E-01
        1   -1    0    0  501    0  0.00000000000E+00  0.00000000000E+00  0.96297641409E+03  0.96297641410E+03  0.50400001928E-02 0.  1.
       -1   -1    0    0    0  501  0.00000000000E+00  0.00000000000E+00 -0.75527574751E+03  0.75527574753E+03  0.50400001928E-02 0. -1.
    10030    2    1    2    0    0  0.00000000000E+00  0.00000000000E+00  0.20770066657E+03  0.17182521616E+04  0.17056526387E+04 0.  0.
        2    1    3    3  502    0 -0.26224502658E+03  0.31712284046E+02  0.92072535503E+03  0.95786914677E+03  0.25500000920E-02 0.  1.
       -2    1    3    3    0  502  0.26224502658E+03 -0.31712284046E+02 -0.71302468846E+03  0.76038301486E+03  0.25500000920E-02 0. -1.
</event>
<event>
 5   0  0.6615842E-05  0.1705824E+04  0.7818609E-02  0.8758050E-01
        1   -1    0    0  501    0  0.00000000000E+00  0.00000000000E+00  0.11671099819E+04  0.11671099819E+04  0.50400001928E-02 0.  1.
       -1   -1    0    0    0  501  0.00000000000E+00  0.00000000000E+00 -0.62329929139E+03  0.62329929141E+03  0.50400001928E-02 0. -1.
    10030    2    1    2    0    0  0.00000000000E+00  0.00000000000E+00  0.54381069052E+03  0.17904092733E+04  0.17058239355E+04 0.  0.
        3    1    3    3  502    0 -0.77146553923E+03  0.22395809685E+03  0.57272214852E+03  0.98657335103E+03  0.10100000352E+00 0. -1.
       -3    1    3    3    0  502  0.77146553923E+03 -0.22395809685E+03 -0.28911458000E+02  0.80383592229E+03  0.10100000352E+00 0.  1.
</event>
<event>
 5   0  0.6834837E-05  0.1699916E+04  0.7818609E-02  0.8761412E-01
       -1   -1    0    0    0  501  0.00000000000E+00  0.00000000000E+00  0.57715198719E+03  0.57715198721E+03  0.50400001928E-02 0.  1.
        1   -1    0    0  501    0  0.00000000000E+00  0.00000000000E+00 -0.12517130234E+04  0.12517130234E+04  0.50400001928E-02 0. -1.
    10030    2    1    2    0    0  0.00000000000E+00  0.00000000000E+00 -0.67456103618E+03  0.18288650106E+04  0.16999160672E+04 0.  0.
        5    1    3    3  502    0  0.41867790358E+03  0.73212170478E+03 -0.45069631993E+03  0.95626494255E+03  0.46999998093E+01 0. -1.
       -5    1    3    3    0  502 -0.41867790358E+03 -0.73212170478E+03 -0.22386471625E+03  0.87260006804E+03  0.46999998093E+01 0.  1.
</event>
<event>
 5   0  0.1269175E-04  0.1696610E+04  0.7818609E-02  0.8763300E-01
        2   -1    0    0  501    0  0.00000000000E+00  0.00000000000E+00  0.74871625748E+03  0.74871625748E+03  0.25500000920E-02 0.  1.
       -2   -1    0    0    0  501  0.00000000000E+00  0.00000000000E+00 -0.96114006862E+03  0.96114006862E+03  0.25500000920E-02 0. -1.
    10030    2    1    2    0    0  0.00000000000E+00  0.00000000000E+00 -0.21242381114E+03  0.17098563261E+04  0.16966097903E+04 0.  0.
        2    1    3    3  502    0  0.72283268259E+02 -0.47288383951E+03  0.59981270411E+03  0.76721527393E+03  0.25500000920E-02 0.  1.
       -2    1    3    3    0  502 -0.72283268259E+02  0.47288383951E+03 -0.81223651525E+03  0.94264105218E+03  0.25500000920E-02 0. -1.
</event>
<event>
 5   0  0.1255362E-04  0.1698020E+04  0.7818609E-02  0.8762494E-01
        2   -1    0    0  501    0  0.00000000000E+00  0.00000000000E+00  0.13789353386E+04  0.13789353386E+04  0.25500000920E-02 0. -1.
       -2   -1    0    0    0  501  0.00000000000E+00  0.00000000000E+00 -0.52273540182E+03  0.52273540183E+03  0.25500000920E-02 0.  1.
    10030    2    1    2    0    0  0.00000000000E+00  0.00000000000E+00  0.85619993675E+03  0.19016707404E+04  0.16980203984E+04 0.  0.
        1    1    3    3  502    0  0.67437205282E+03  0.13422137411E+03  0.98585101191E+03  0.12019547665E+04  0.50400001928E-02 0. -1.
       -1    1    3    3    0  502 -0.67437205282E+03 -0.13422137411E+03 -0.12965107516E+03  0.69971597395E+03  0.50400001928E-02 0.  1.
</event>
<event>
 5   0  0.6615842E-05  0.1724054E+04  0.7818609E-02  0.8747763E-01
       -1   -1    0    0    0  501  0.00000000000E+00  0.00000000000E+00  0.68226364210E+03  0.68226364212E+03  0.50400001928E-02 0.  1.
        1   -1    0    0  501    0  0.00000000000E+00  0.00000000000E+00 -0.10891546068E+04  0.10891546069E+04  0.50400001928E-02 0. -1.
    10030    2    1    2    0    0  0.00000000000E+00  0.00000000000E+00 -0.40689096475E+03  0.17714182490E+04  0.17240540466E+04 0.  0.
        3    1    3    3  502    0 -0.36816507363E+03  0.58341737803E+03 -0.73452976622E+03  0.10076980431E+04  0.10100000352E+00 0. -1.
       -3    1    3    3    0  502  0.36816507363E+03 -0.58341737803E+03  0.32763880147E+03  0.76372020587E+03  0.10100000352E+00 0.  1.
</event>
<event>
 5   0  0.1255362E-04  0.1697889E+04  0.7818609E-02  0.8762569E-01
        2   -1    0    0  501    0  0.00000000000E+00  0.00000000000E+00  0.12998610554E+04  0.12998610554E+04  0.25500000920E-02 0.  1.
       -2   -1    0    0    0  501  0.00000000000E+00  0.00000000000E+00 -0.55444919318E+03  0.55444919319E+03  0.25500000920E-02 0. -1.
    10030    2    1    2    0    0  0.00000000000E+00  0.00000000000E+00  0.74541186217E+03  0.18543102485E+04  0.16978891759E+04 0.  0.
        1    1    3    3  502    0  0.34312700245E+03  0.64762450910E+02 -0.47238894461E+03  0.58743649008E+03  0.50400001928E-02 0. -1.
       -1    1    3    3    0  502 -0.34312700245E+03 -0.64762450910E+02  0.12178008068E+04  0.12668737585E+04  0.50400001928E-02 0.  1.
</event>
<event>
 5   0  0.1255362E-04  0.1698550E+04  0.7818609E-02  0.8762192E-01
       -2   -1    0    0    0  501  0.00000000000E+00  0.00000000000E+00  0.14369229243E+04  0.14369229243E+04  0.25500000920E-02 0.  1.
        2   -1    0    0  501    0  0.00000000000E+00  0.00000000000E+00 -0.50195326688E+03  0.50195326688E+03  0.25500000920E-02 0. -1.
    10030    2    1    2    0    0  0.00000000000E+00  0.00000000000E+00  0.93496965739E+03  0.19388761912E+04  0.16985501536E+04 0.  0.
        1    1    3    3  502    0  0.48503162644E+03 -0.69435953520E+03  0.53856314806E+03  0.10037136580E+04  0.50400001928E-02 0.  1.
       -1    1    3    3    0  502 -0.48503162644E+03  0.69435953520E+03  0.39640650932E+03  0.93516253316E+03  0.50400001928E-02 0. -1.
</event>
<event>
 5   0  0.1333546E-04  0.1700390E+04  0.7818609E-02  0.8761142E-01
        2   -1    0    0  501    0  0.00000000000E+00  0.00000000000E+00  0.11736736568E+04  0.11736736568E+04  0.25500000920E-02 0. -1.
       -2   -1    0    0    0  501  0.00000000000E+00  0.00000000000E+00 -0.61587071967E+03  0.61587071967E+03  0.25500000920E-02 0.  1.
    10030    2    1    2    0    0  0.00000000000E+00  0.00000000000E+00  0.55780293709E+03  0.17895443764E+04  0.17003896490E+04 0.  0.
        5    1    3    3  502    0  0.76135318933E+03 -0.18389203813E+03 -0.69092737989E+02  0.78630201388E+03  0.46999998093E+01 0.  1.
       -5    1    3    3    0  502 -0.76135318933E+03  0.18389203813E+03  0.62689567507E+03  0.10032423625E+04  0.46999998093E+01 0. -1.
</event>
<event>
 5   0  0.1393870E-04  0.1700107E+04  0.7818609E-02  0.8761304E-01
       -2   -1    0    0    0  501  0.00000000000E+00  0.00000000000E+00  0.75158115881E+03  0.75158115882E+03  0.25500000920E-02 0.  1.
        2   -1    0    0  501    0  0.00000000000E+00  0.00000000000E+00 -0.96142724814E+03  0.96142724815E+03  0.25500000920E-02 0. -1.
    10030    2    1    2    0    0  0.00000000000E+00  0.00000000000E+00 -0.20984608933E+03  0.17130084070E+04  0.17001065911E+04 0.  0.
        3    1    3    3  502    0 -0.12552393198E+03 -0.75692955299E+03  0.26376634591E+03  0.81133920226E+03  0.10100000352E+00 0.  1.
       -3    1    3    3    0  502  0.12552393198E+03  0.75692955299E+03 -0.47361243524E+03  0.90166920470E+03  0.10100000352E+00 0. -1.
</event>
<event>
 5   0  0.6601906E-05  0.1699694E+04  0.7818609E-02  0.8761539E-01
        1   -1    0    0  501    0  0.00000000000E+00  0.00000000000E+00  0.91574048757E+03  0.91574048759E+03  0.50400001928E-02 0.  1.
       -1   -1    0    0    0  501  0.00000000000E+00  0.00000000000E+00 -0.78869523865E+03  0.78869523867E+03  0.50400001928E-02 0. -1.
    10030    2    1    2    0    0  0.00000000000E+00  0.00000000000E+00  0.12704524892E+03  0.17044357263E+04  0.16996942812E+04 0.  0.
        1    1    3    3  502    0 -0.19481808176E+03 -0.11862135379E+03  0.88447299669E+03  0.91340987101E+03  0.50400001928E-02 0.  1.
       -1    1    3    3    0  502  0.19481808176E+03  0.11862135379E+03 -0.75742774777E+03  0.79102585525E+03  0.50400001928E-02 0. -1.
</event>
<event>
 5   0  0.6601906E-05  0.1699709E+04  0.7818609E-02  0.8761531E-01
       -1   -1    0    0    0  501  0.00000000000E+00  0.00000000000E+00  0.71808840401E+03  0.71808840403E+03  0.50400001928E-02 0.  1.
        1   -1    0    0  501    0  0.00000000000E+00  0.00000000000E+00 -0.10057985673E+04  0.10057985673E+04  0.50400001928E-02 0. -1.
    10030    2    1    2    0    0  0.00000000000E+00  0.00000000000E+00 -0.28771016332E+03  0.17238869714E+04  0.16997085491E+04 0.  0.
        1    1    3    3  502    0  0.39694050476E+03  0.70197712517E+03  0.12813624781E+03  0.81654916975E+03  0.50400001928E-02 0.  1.
       -1    1    3    3    0  502 -0.39694050476E+03 -0.70197712517E+03 -0.41584641113E+03  0.90733780163E+03  0.50400001928E-02 0. -1.
</event>
<event>
 5   0  0.6601906E-05  0.1700234E+04  0.7818609E-02  0.8761231E-01
        1   -1    0    0  501    0  0.00000000000E+00  0.00000000000E+00  0.69230781505E+03  0.69230781507E+03  0.50400001928E-02 0.  1.
       -1   -1    0    0    0  501  0.00000000000E+00  0.00000000000E+00 -0.10438980351E+04  0.10438980351E+04  0.50400001928E-02 0. -1.
    10030    2    1    2    0    0  0.00000000000E+00  0.00000000000E+00 -0.35159022007E+03  0.17362058502E+04  0.17002338285E+04 0.  0.
        1    1    3    3  502    0  0.31458223837E+03 -0.71783557598E+03 -0.51207823617E+03  0.93620191135E+03  0.50400001928E-02 0. -1.
       -1    1    3    3    0  502 -0.31458223837E+03  0.71783557598E+03  0.16048801610E+03  0.80000393885E+03  0.50400001928E-02 0.  1.
</event>
<event>
 5   0  0.1333546E-04  0.1705383E+04  0.7818609E-02  0.8758300E-01
        2   -1    0    0  501    0  0.00000000000E+00  0.00000000000E+00  0.19185311433E+04  0.19185311433E+04  0.25500000920E-02 0. -1.
       -2   -1    0    0    0  501  0.00000000000E+00  0.00000000000E+00 -0.37897894174E+03  0.37897894175E+03  0.25500000920E-02 0.  1.
    10030    2    1    2    0    0  0.00000000000E+00  0.00000000000E+00  0.15395522015E+04  0.22975100850E+04  0.17053831269E+04 0.  0.
        5    1    3    3  502    0 -0.50439927564E+03  0.29063678819E+03 -0.69583019434E+02  0.58630389603E+03  0.46999998093E+01 0.  1.
       -5    1    3    3    0  502  0.50439927564E+03 -0.29063678819E+03  0.16091352210E+04  0.17112061890E+04  0.46999998093E+01 0. -1.
</event>
<event>
 5   0  0.1255362E-04  0.1697760E+04  0.7818609E-02  0.8762643E-01
       -2   -1    0    0    0  501  0.00000000000E+00  0.00000000000E+00  0.76792439339E+03  0.76792439339E+03  0.25500000920E-02 0.  1.
        2   -1    0    0  501    0  0.00000000000E+00  0.00000000000E+00 -0.93836998264E+03  0.93836998264E+03  0.25500000920E-02 0. -1.
    10030    2    1    2    0    0  0.00000000000E+00  0.00000000000E+00 -0.17044558925E+03  0.17062943760E+04  0.16977599356E+04 0.  0.
        1    1    3    3  502    0  0.68374567213E+03  0.49315968268E+03 -0.18513370394E+03  0.86312751383E+03  0.50400001928E-02 0. -1.
       -1    1    3    3    0  502 -0.68374567213E+03 -0.49315968268E+03  0.14688114685E+02  0.84316686220E+03  0.50400001928E-02 0.  1.
</event>
<event>
 5   0  0.6834837E-05  0.1696983E+04  0.7818609E-02  0.8763087E-01
        1   -1    0    0  501    0  0.00000000000E+00  0.00000000000E+00  0.16771025160E+04  0.16771025160E+04  0.50400001928E-02 0.  1.
       -1   -1    0    0    0  501  0.00000000000E+00  0.00000000000E+00 -0.42927500451E+03  0.42927500454E+03  0.50400001928E-02 0. -1.
    10030    2    1    2    0    0  0.00000000000E+00  0.00000000000E+00  0.12478275115E+04  0.21063775206E+04  0.16969834297E+04 0.  0.
        5    1    3    3  502    0  0.19566630006E+03 -0.22979394971E+02  0.16483028009E+04  0.16600414353E+04  0.46999998093E+01 0.  1.
       -5    1    3    3    0  502 -0.19566630006E+03  0.22979394971E+02 -0.40047528939E+03  0.44633608523E+03  0.46999998093E+01 0. -1.
</event>
<event>
 5   0  0.6834837E-05  0.1724831E+04  0.7818609E-02  0.8747327E-01
        1   -1    0    0  501    0  0.00000000000E+00  0.00000000000E+00  0.84536080643E+03  0.84536080645E+03  0.50400001928E-02 0.  1.
       -1   -1    0    0    0  501  0.00000000000E+00  0.00000000000E+00 -0.87981472289E+03  0.87981472290E+03  0.50400001928E-02 0. -1.
    10030    2    1    2    0    0  0.00000000000E+00  0.00000000000E+00 -0.34453916458E+02  0.17251755293E+04  0.17248314511E+04 0.  0.
        5    1    3    3  502    0 -0.29162392160E+03  0.23139460864E+03 -0.79529654278E+03  0.87812678897E+03  0.46999998093E+01 0. -1.
       -5    1    3    3    0  502  0.29162392160E+03 -0.23139460864E+03  0.76084262632E+03  0.84704874038E+03  0.46999998093E+01 0.  1.
</event>
<event>
 5   0  0.1255362E-04  0.1707427E+04  0.7818609E-02  0.8757140E-01
       -2   -1    0    0    0  501  0.00000000000E+00  0.00000000000E+00  0.74477078450E+03  0.74477078450E+03  0.25500000920E-02 0.  1.
        2   -1    0    0  501    0  0.00000000000E+00  0.00000000000E+00 -0.97859193757E+03  0.97859193758E+03  0.25500000920E-02 0. -1.
    10030    2    1    2    0    0  0.00000000000E+00  0.00000000000E+00 -0.23382115308E+03  0.17233627221E+04  0.17074269355E+04 0.  0.
        1    1    3    3  502    0 -0.10667398645E+01 -0.73069809012E+03  0.32869129002E+03  0.80122331531E+03  0.50400001928E-02 0.  1.
       -1    1    3    3    0  502  0.10667398645E+01  0.73069809012E+03 -0.56251244310E+03  0.92213940676E+03  0.50400001928E-02 0. -1.
</event>
<event>
 5   0  0.6615842E-05  0.1693902E+04  0.7818609E-02  0.8764850E-01
        1   -1    0    0  501    0  0.00000000000E+00  0.00000000000E+00  0.19763504825E+04  0.19763504825E+04  0.50400001928E-02 0.  1.
       -1   -1    0    0    0  501  0.00000000000E+00  0.00000000000E+00 -0.36295491179E+03  0.36295491182E+03  0.50400001928E-02 0. -1.
    10030    2    1    2    0    0  0.00000000000E+00  0.00000000000E+00  0.16133955707E+04  0.23393053943E+04  0.16939021401E+04 0.  0.
        3    1    3    3  502    0  0.77549351752E+03  0.29754868510E+03  0.10352994289E+04  0.13273169680E+04  0.10100000352E+00 0.  1.
       -3    1    3    3    0  502 -0.77549351752E+03 -0.29754868510E+03  0.57809614177E+03  0.10119884263E+04  0.10100000352E+00 0. -1.
</event>
<event>
 5   0  0.6539134E-05  0.1691228E+04  0.7818609E-02  0.8766383E-01
       -1   -1    0    0    0  501  0.00000000000E+00  0.00000000000E+00  0.29120674841E+03  0.29120674845E+03  0.50400001928E-02 0.  1.
        1   -1    0    0  501    0  0.00000000000E+00  0.00000000000E+00 -0.24555158928E+04  0.24555158928E+04  0.50400001928E-02 0. -1.
    10030    2    1    2    0    0  0.00000000000E+00  0.00000000000E+00 -0.21643091444E+04  0.27467226412E+04  0.16912277184E+04 0.  0.
        2    1    3    3  502    0 -0.68807922268E+03  0.44599722067E+03 -0.14177435154E+04  0.16377921764E+04  0.25500000920E-02 0. -1.
       -2    1    3    3    0  502  0.68807922268E+03 -0.44599722067E+03 -0.74656562895E+03  0.11089304648E+04  0.25500000920E-02 0.  1.
</event>
<event>
 5   0  0.6564887E-05  0.1702088E+04  0.7818609E-02  0.8760174E-01
       -1   -1    0    0    0  501  0.00000000000E+00  0.00000000000E+00  0.60407751106E+03  0.60407751108E+03  0.50400001928E-02 0. -1.
        1   -1    0    0  501    0  0.00000000000E+00  0.00000000000E+00 -0.11989783360E+04  0.11989783360E+04  0.50400001928E-02 0.  1.
    10030    2    1    2    0    0  0.00000000000E+00  0.00000000000E+00 -0.59490082496E+03  0.18030558471E+04  0.17020879520E+04 0.  0.
        4    1    3    3  502    0  0.59115975811E+02  0.67534715627E+03 -0.84244534770E+03  0.10813437274E+04  0.12699999809E+01 0.  1.
       -4    1    3    3    0  502 -0.59115975811E+02 -0.67534715627E+03  0.24754452274E+03  0.72171211969E+03  0.12699999809E+01 0. -1.
</event>
<event>
 5   0  0.6564887E-05  0.1718097E+04  0.7818609E-02  0.8751110E-01
       -1   -1    0    0    0  501  0.00000000000E+00  0.00000000000E+00  0.46713288170E+03  0.46713288173E+03  0.50400001928E-02 0. -1.
        1   -1    0    0  501    0  0.00000000000E+00  0.00000000000E+00 -0.15797733291E+04  0.15797733291E+04  0.50400001928E-02 0.  1.
    10030    2    1    2    0    0  0.00000000000E+00  0.00000000000E+00 -0.11126404474E+04  0.20469062109E+04  0.17180967001E+04 0.  0.
        4    1    3    3  502    0 -0.65133232742E+02  0.15470323139E+03  0.44740391514E+03  0.47785699115E+03  0.12699999809E+01 0. -1.
       -4    1    3    3    0  502  0.65133232742E+02 -0.15470323139E+03 -0.15600443626E+04  0.15690492197E+04  0.12699999809E+01 0.  1.
</event>
<event>
 5   0  0.6601906E-05  0.1697271E+04  0.7818609E-02  0.8762922E-01
       -1   -1    0    0    0  501  0.00000000000E+00  0.00000000000E+00  0.59609334584E+03  0.59609334586E+03  0.50400001928E-02 0. -1.
        1   -1    0    0  501    0  0.00000000000E+00  0.00000000000E+00 -0.12081705737E+04  0.12081705737E+04  0.50400001928E-02 0.  1.
    10030    2    1    2    0    0  0.00000000000E+00  0.00000000000E+00 -0.61207722782E+03  0.18042639195E+04  0.16972712684E+04 0.  0.
        1    1    3    3  502    0  0.37805339420E+03 -0.13400695152E+03  0.48896901335E+03  0.63243412935E+03  0.50400001928E-02 0. -1.
       -1    1    3    3    0  502 -0.37805339420E+03  0.13400695152E+03 -0.11010462412E+04  0.11718297902E+04  0.50400001928E-02 0.  1.
</event>
<event>
 5   0  0.6615842E-05  0.1707845E+04  0.7818609E-02  0.8756902E-01
        1   -1    0    0  501    0  0.00000000000E+00  0.00000000000E+00  0.11334902512E+04  0.11334902512E+04  0.50400001928E-02 0.  1.
       -1   -1    0    0    0  501  0.00000000000E+00  0.00000000000E+00 -0.64330849544E+03  0.64330849546E+03  0.50400001928E-02 0. -1.
    10030    2    1    2    0    0  0.00000000000E+00  0.00000000000E+00  0.49018175575E+03  0.17767987467E+04  0.17078453187E+04 0.  0.
        3    1    3    3  502    0  0.95344815037E+02 -0.80052568634E+03  0.53797411683E+03  0.96919975693E+03  0.10100000352E+00 0.  1.
       -3    1    3    3    0  502 -0.95344815037E+02  0.80052568634E+03 -0.47792361086E+02  0.80759898974E+03  0.10100000352E+00 0. -1.
</event>
<event>
 5   0  0.6564887E-05  0.1612496E+04  0.7818609E-02  0.8812908E-01
        1   -1    0    0  501    0  0.00000000000E+00  0.00000000000E+00  0.12004777256E+04  0.12004777256E+04  0.50400001928E-02 0. -1.
       -1   -1    0    0    0  501  0.00000000000E+00  0.00000000000E+00 -0.54148075704E+03  0.54148075706E+03  0.50400001928E-02 0.  1.
    10030    2    1    2    0    0  0.00000000000E+00  0.00000000000E+00  0.65899696858E+03  0.17419584827E+04  0.16124956902E+04 0.  0.
        4    1    3    3  502    0  0.27224347611E+03  0.10742643780E+02  0.11492379505E+04  0.11810933047E+04  0.12699999809E+01 0. -1.
       -4    1    3    3    0  502 -0.27224347611E+03 -0.10742643780E+02 -0.49024098188E+03  0.56086517801E+03  0.12699999809E+01 0.  1.
</event>
<event>
 5   0  0.1333546E-04  0.1691231E+04  0.7818609E-02  0.8766381E-01
       -2   -1    0    0    0  501  0.00000000000E+00  0.00000000000E+00  0.74341790808E+03  0.74341790809E+03  0.25500000920E-02 0. -1.
        2   -1    0    0  501    0  0.00000000000E+00  0.00000000000E+00 -0.96186261175E+03  0.96186261175E+03  0.25500000920E-02 0.  1.
    10030    2    1    2    0    0  0.00000000000E+00  0.00000000000E+00 -0.21844470366E+03  0.17052805198E+04  0.16912313747E+04 0.  0.
        5    1    3    3  502    0  0.54070782915E+03  0.65011259309E+03 -0.10347761073E+03  0.85190436442E+03  0.46999998093E+01 0.  1.
       -5    1    3    3    0  502 -0.54070782915E+03 -0.65011259309E+03 -0.11496709294E+03  0.85337615542E+03  0.46999998093E+01 0. -1.
</event>
<event>
 5   0  0.6539134E-05  0.1696307E+04  0.7818609E-02  0.8763473E-01
       -1   -1    0    0    0  501  0.00000000000E+00  0.00000000000E+00  0.41970511080E+03  0.41970511083E+03  0.50400001928E-02 0. -1.
        1   -1    0    0  501    0  0.00000000000E+00  0.00000000000E+00 -0.17139760021E+04  0.17139760021E+04  0.50400001928E-02 0.  1.
    10030    2    1    2    0    0  0.00000000000E+00  0.00000000000E+00 -0.12942708913E+04  0.21336811129E+04  0.16963071513E+04 0.  0.
        2    1    3    3  502    0 -0.53693535874E+03 -0.46575595960E+03 -0.65072220232E+02  0.71376647947E+03  0.25500000920E-02 0. -1.
       -2    1    3    3    0  502  0.53693535874E+03  0.46575595960E+03 -0.12291986710E+04  0.14199146334E+04  0.25500000920E-02 0.  1.
</event>
<event>
 5   0  0.6615842E-05  0.1702182E+04  0.7818609E-02  0.8760121E-01
        1   -1    0    0  501    0  0.00000000000E+00  0.00000000000E+00  0.73322847131E+03  0.73322847133E+03  0.50400001928E-02 0. -1.
       -1   -1    0    0    0  501  0.00000000000E+00  0.00000000000E+00 -0.98789961679E+03  0.98789961680E+03  0.50400001928E-02 0.  1.
    10030    2    1    2    0    0  0.00000000000E+00  0.00000000000E+00 -0.25467114548E+03  0.17211280881E+04  0.17021822768E+04 0.  0.
        3    1    3    3  502    0  0.12649799728E+03  0.82762361532E+03 -0.28198736218E+03  0.88344749396E+03  0.10100000352E+00 0.  1.
       -3    1    3    3    0  502 -0.12649799728E+03 -0.82762361532E+03  0.27316216700E+02  0.83768059417E+03  0.10100000352E+00 0. -1.
</event>
<event>
 5   0  0.6539134E-05  0.1678626E+04  0.7818609E-02  0.8773649E-01
       -1   -1    0    0    0  501  0.00000000000E+00  0.00000000000E+00  0.41539889115E+03  0.41539889118E+03  0.50400001928E-02 0.  1.
        1   -1    0    0  501    0  0.00000000000E+00  0.00000000000E+00 -0.16958316473E+04  0.16958316473E+04  0.50400001928E-02 0. -1.
    10030    2    1    2    0    0  0.00000000000E+00  0.00000000000E+00 -0.12804327562E+04  0.21112305385E+04  0.16786263264E+04 0.  0.
        2    1    3    3  502    0  0.13655562299E+03 -0.34687746339E+03  0.30555986404E+03  0.48201477498E+03  0.25500000920E-02 0.  1.
       -2    1    3    3    0  502 -0.13655562299E+03  0.34687746339E+03 -0.15859926202E+04  0.16292157635E+04  0.25500000920E-02 0. -1.
</event>
<event>
 5   0  0.1255362E-04  0.1692568E+04  0.7818609E-02  0.8765614E-01
        2   -1    0    0  501    0  0.00000000000E+00  0.00000000000E+00  0.10725382078E+04  0.10725382078E+04  0.25500000920E-02 0. -1.
       -2   -1    0    0    0  501  0.00000000000E+00  0.00000000000E+00 -0.66775878660E+03  0.66775878660E+03  0.25500000920E-02 0.  1.
    10030    2    1    2    0    0  0.00000000000E+00  0.00000000000E+00  0.40477942124E+03  0.17402969944E+04  0.16925682406E+04 0.  0.
        1    1    3    3  502    0 -0.62306933297E+03  0.23720281052E+03 -0.33357350604E+03  0.74548765983E+03  0.50400001928E-02 0.  1.
       -1    1    3    3    0  502  0.62306933297E+03 -0.23720281052E+03  0.73835292728E+03  0.99480933462E+03  0.50400001928E-02 0. -1.
</event>
<event>
 5   0  0.6601906E-05  0.1704198E+04  0.7818609E-02  0.8758974E-01
        1   -1    0    0  501    0  0.00000000000E+00  0.00000000000E+00  0.10270501150E+04  0.10270501150E+04  0.50400001928E-02 0. -1.
       -1   -1    0    0    0  501  0.00000000000E+00  0.00000000000E+00 -0.70694954034E+03  0.70694954036E+03  0.50400001928E-02 0.  1.
    10030    2    1    2    0    0  0.00000000000E+00  0.00000000000E+00  0.32010057467E+03  0.17339996554E+04  0.17041978838E+04 0.  0.
        1    1    3    3  502    0  0.54190638321E+03  0.10418694523E+03  0.82067708958E+03  0.98895315011E+03  0.50400001928E-02 0. -1.
       -1    1    3    3    0  502 -0.54190638321E+03 -0.10418694523E+03 -0.50057651491E+03  0.74504650528E+03  0.50400001928E-02 0.  1.
</event>
<event>
 5   0  0.1269175E-04  0.1700875E+04  0.7818609E-02  0.8760865E-01
        2   -1    0    0  501    0  0.00000000000E+00  0.00000000000E+00  0.17752068442E+04  0.17752068442E+04  0.25500000920E-02 0. -1.
       -2   -1    0    0    0  501  0.00000000000E+00  0.00000000000E+00 -0.40741395275E+03  0.40741395276E+03  0.25500000920E-02 0.  1.
    10030    2    1    2    0    0  0.00000000000E+00  0.00000000000E+00  0.13677928914E+04  0.21826207969E+04  0.17008751128E+04 0.  0.
        2    1    3    3  502    0 -0.18132562070E+02  0.75325677388E+03  0.17784081631E+03  0.77417821796E+03  0.25500000920E-02 0.  1.
       -2    1    3    3    0  502  0.18132562070E+02 -0.75325677388E+03  0.11899520751E+04  0.14084425790E+04  0.25500000920E-02 0. -1.
</event>
<event>
 5   0  0.4720875E-05  0.1697378E+04  0.7818609E-02  0.8762861E-01
        3   -1    0    0  501    0  0.00000000000E+00  0.00000000000E+00  0.22704518848E+04  0.22704518871E+04  0.10100000352E+00 0.  1.
       -3   -1    0    0    0  501  0.00000000000E+00  0.00000000000E+00 -0.31723767837E+03  0.31723769445E+03  0.10100000352E+00 0. -1.
    10030    2    1    2    0    0  0.00000000000E+00  0.00000000000E+00  0.19532142065E+04  0.25876895815E+04  0.16973778701E+04 0.  0.
        4    1    3    3  502    0 -0.66114482906E+02  0.24877156398E+03  0.22095040928E+04  0.22244478787E+04  0.12699999809E+01 0.  1.
       -4    1    3    3    0  502  0.66114482906E+02 -0.24877156398E+03 -0.25628988639E+03  0.36324170281E+03  0.12699999809E+01 0. -1.
</event>
<event>
 5   0  0.6601906E-05  0.1695253E+04  0.7818609E-02  0.8764076E-01
        1   -1    0    0  501    0  0.00000000000E+00  0.00000000000E+00  0.13903561400E+04  0.13903561400E+04  0.50400001928E-02 0.  1.
       -1   -1    0    0    0  501  0.00000000000E+00  0.00000000000E+00 -0.51675314790E+03  0.51675314793E+03  0.50400001928E-02 0. -1.
    10030    2    1    2    0    0  0.00000000000E+00  0.00000000000E+00  0.87360299213E+03  0.19071092880E+04  0.16952532697E+04 0.  0.
        1    1    3    3  502    0 -0.28881342555E+03 -0.18537161571E+02 -0.45945034446E+03  0.54300224695E+03  0.50400001928E-02 0. -1.
       -1    1    3    3    0  502  0.28881342555E+03  0.18537161571E+02  0.13330533366E+04  0.13641070410E+04  0.50400001928E-02 0.  1.
</event>
<event>
 5   0  0.6615842E-05  0.1699739E+04  0.7818609E-02  0.8761513E-01
        1   -1    0    0  501    0  0.00000000000E+00  0.00000000000E+00  0.88480786798E+03  0.88480786799E+03  0.50400001928E-02 0.  1.
       -1   -1    0    0    0  501  0.00000000000E+00  0.00000000000E+00 -0.81631075123E+03  0.81631075125E+03  0.50400001928E-02 0. -1.
    10030    2    1    2    0    0  0.00000000000E+00  0.00000000000E+00  0.68497116746E+02  0.17011186192E+04  0.16997390099E+04 0.  0.
        3    1    3    3  502    0  0.45311679471E+03  0.70235856403E+02 -0.68189513242E+03  0.82172312063E+03  0.10100000352E+00 0. -1.
       -3    1    3    3    0  502 -0.45311679471E+03 -0.70235856403E+02  0.75039224916E+03  0.87939549861E+03  0.10100000352E+00 0.  1.
</event>
<event>
 5   0  0.1393870E-04  0.1701474E+04  0.7818609E-02  0.8760524E-01
        2   -1    0    0  501    0  0.00000000000E+00  0.00000000000E+00  0.10075512614E+04  0.10075512614E+04  0.25500000920E-02 0. -1.
       -2   -1    0    0    0  501  0.00000000000E+00  0.00000000000E+00 -0.71832895425E+03  0.71832895425E+03  0.25500000920E-02 0.  1.
    10030    2    1    2    0    0  0.00000000000E+00  0.00000000000E+00  0.28922230715E+03  0.17258802157E+04  0.17014737658E+04 0.  0.
        3    1    3    3  502    0 -0.53193275580E+03  0.54562675428E+03  0.52831257402E+03  0.92724063638E+03  0.10100000352E+00 0. -1.
       -3    1    3    3    0  502  0.53193275580E+03 -0.54562675428E+03 -0.23909026687E+03  0.79863957928E+03  0.10100000352E+00 0.  1.
</event>
<event>
 5   0  0.1285639E-04  0.1702268E+04  0.7818609E-02  0.8760072E-01
        2   -1    0    0  501    0  0.00000000000E+00  0.00000000000E+00  0.10877301816E+04  0.10877301816E+04  0.25500000920E-02 0.  1.
       -2   -1    0    0    0  501  0.00000000000E+00  0.00000000000E+00 -0.66600060932E+03  0.66600060933E+03  0.25500000920E-02 0. -1.
    10030    2    1    2    0    0  0.00000000000E+00  0.00000000000E+00  0.42172957232E+03  0.17537307910E+04  0.17022678564E+04 0.  0.
        4    1    3    3  502    0  0.41195217519E+02 -0.41529523116E+03  0.97508596644E+03  0.10606419895E+04  0.12699999809E+01 0.  1.
       -4    1    3    3    0  502 -0.41195217519E+02  0.41529523116E+03 -0.55335639412E+03  0.69308880151E+03  0.12699999809E+01 0. -1.
</event>
<event>
 5   0  0.6601906E-05  0.1695339E+04  0.7818609E-02  0.8764027E-01
       -1   -1    0    0    0  501  0.00000000000E+00  0.00000000000E+00  0.83484955153E+03  0.83484955155E+03  0.50400001928E-02 0. -1.
        1   -1    0    0  501    0  0.00000000000E+00  0.00000000000E+00 -0.86068664535E+03  0.86068664537E+03  0.50400001928E-02 0.  1.
    10030    2    1    2    0    0  0.00000000000E+00  0.00000000000E+00 -0.25837093823E+02  0.16955361969E+04  0.16953393288E+04 0.  0.
        1    1    3    3  502    0  0.74731856019E+03  0.21152903863E+03  0.32670047225E+03  0.84259288104E+03  0.50400001928E-02 0. -1.
       -1    1    3    3    0  502 -0.74731856019E+03 -0.21152903863E+03 -0.35253756607E+03  0.85294331588E+03  0.50400001928E-02 0.  1.
</event>
<event>
 5   0  0.6834837E-05  0.1718444E+04  0.7818609E-02  0.8750915E-01
       -1   -1    0    0    0  501  0.00000000000E+00  0.00000000000E+00  0.73167182895E+03  0.73167182896E+03  0.50400001928E-02 0. -1.
        1   -1    0    0  501    0  0.00000000000E+00  0.00000000000E+00 -0.10090074283E+04  0.10090074283E+04  0.50400001928E-02 0.  1.
    10030    2    1    2    0    0  0.00000000000E+00  0.00000000000E+00 -0.27733559932E+03  0.17406792572E+04  0.17184438431E+04 0.  0.
        5    1    3    3  502    0 -0.58716610898E+03  0.31144418413E+03 -0.69021179314E+03  0.95821497001E+03  0.46999998093E+01 0.  1.
       -5    1    3    3    0  502  0.58716610898E+03 -0.31144418413E+03  0.41287619382E+03  0.78246428723E+03  0.46999998093E+01 0. -1.
</event>
<event>
 5   0  0.1393870E-04  0.1706211E+04  0.7818609E-02  0.8757830E-01
        2   -1    0    0  501    0  0.00000000000E+00  0.00000000000E+00  0.10850578073E+04  0.10850578073E+04  0.25500000920E-02 0. -1.
       -2   -1    0    0    0  501  0.00000000000E+00  0.00000000000E+00 -0.67073786951E+03  0.67073786951E+03  0.25500000920E-02 0.  1.
    10030    2    1    2    0    0  0.00000000000E+00  0.00000000000E+00  0.41431993781E+03  0.17557956768E+04  0.17062114312E+04 0.  0.
        3    1    3    3  502    0 -0.57234432579E+03  0.10076982421E+03  0.84985513946E+03  0.10295563865E+04  0.10100000352E+00 0. -1.
       -3    1    3    3    0  502  0.57234432579E+03 -0.10076982421E+03 -0.43553520165E+03  0.72623929033E+03  0.10100000352E+00 0.  1.
</event>
<event>
 5   0  0.6564887E-05  0.1701997E+04  0.7818609E-02  0.8760226E-01
        1   -1    0    0  501    0  0.00000000000E+00  0.00000000000E+00  0.79518732594E+03  0.79518732596E+03  0.50400001928E-02 0.  1.
       -1   -1    0    0    0  501  0.00000000000E+00  0.00000000000E+00 -0.91072633458E+03  0.91072633459E+03  0.50400001928E-02 0. -1.
    10030    2    1    2    0    0  0.00000000000E+00  0.00000000000E+00 -0.11553900864E+03  0.17059136605E+04  0.17019965202E+04 0.  0.
        4    1    3    3  502    0  0.52770168441E+03  0.52502856346E+03  0.35557793869E+03  0.82496141943E+03  0.12699999809E+01 0.  1.
       -4    1    3    3    0  502 -0.52770168441E+03 -0.52502856346E+03 -0.47111694732E+03  0.88095224112E+03  0.12699999809E+01 0. -1.
</event>
<event>
 5   0  0.1393870E-04  0.1704501E+04  0.7818609E-02  0.8758801E-01
        2   -1    0    0  501    0  0.00000000000E+00  0.00000000000E+00  0.10576605129E+04  0.10576605129E+04  0.25500000920E-02 0.  1.
       -2   -1    0    0    0  501  0.00000000000E+00  0.00000000000E+00 -0.68673341645E+03  0.68673341646E+03  0.25500000920E-02 0. -1.
    10030    2    1    2    0    0  0.00000000000E+00  0.00000000000E+00  0.37092709644E+03  0.17443939294E+04  0.17045008859E+04 0.  0.
        3    1    3    3  502    0 -0.36516434676E+03 -0.48649910573E+02 -0.60104064043E+03  0.70495508764E+03  0.10100000352E+00 0. -1.
       -3    1    3    3    0  502  0.36516434676E+03  0.48649910573E+02  0.97196773687E+03  0.10394388417E+04  0.10100000352E+00 0.  1.
</event>
<event>
 5   0  0.4720875E-05  0.1705000E+04  0.7818609E-02  0.8758518E-01
       -3   -1    0    0    0  501  0.00000000000E+00  0.00000000000E+00  0.14119209026E+04  0.14119209063E+04  0.10100000352E+00 0. -1.
        3   -1    0    0  501    0  0.00000000000E+00  0.00000000000E+00 -0.51472847781E+03  0.51472848772E+03  0.10100000352E+00 0.  1.
    10030    2    1    2    0    0  0.00000000000E+00  0.00000000000E+00  0.89719242484E+03  0.19266493940E+04  0.17049996012E+04 0.  0.
        2    1    3    3  502    0  0.27134081020E+03 -0.56854603486E+03  0.10976190955E+04  0.12655584174E+04  0.25500000920E-02 0. -1.
       -2    1    3    3    0  502 -0.27134081020E+03  0.56854603486E+03 -0.20042667063E+03  0.66109097660E+03  0.25500000920E-02 0.  1.
</event>
<event>
 5   0  0.6539134E-05  0.1711260E+04  0.7818609E-02  0.8754969E-01
        1   -1    0    0  501    0  0.00000000000E+00  0.00000000000E+00  0.10867396874E+04  0.10867396874E+04  0.50400001928E-02 0. -1.
       -1   -1    0    0    0  501  0.00000000000E+00  0.00000000000E+00 -0.67366851467E+03  0.67366851469E+03  0.50400001928E-02 0.  1.
    10030    2    1    2    0    0  0.00000000000E+00  0.00000000000E+00  0.41307117275E+03  0.17604082021E+04  0.17112595491E+04 0.  0.
        2    1    3    3  502    0  0.38779261235E+03 -0.26871404224E+03  0.94083755425E+03  0.10525044656E+04  0.25500000920E-02 0. -1.
       -2    1    3    3    0  502 -0.38779261235E+03  0.26871404224E+03 -0.52776638150E+03  0.70790373649E+03  0.25500000920E-02 0.  1.
</event>
<event>
 5   0  0.1333546E-04  0.1700842E+04  0.7818609E-02  0.8760884E-01
        2   -1    0    0  501    0  0.00000000000E+00  0.00000000000E+00  0.11107368086E+04  0.11107368086E+04  0.25500000920E-02 0.  1.
       -2   -1    0    0    0  501  0.00000000000E+00  0.00000000000E+00 -0.65111371843E+03  0.65111371844E+03  0.25500000920E-02 0. -1.
    10030    2    1    2    0    0  0.00000000000E+00  0.00000000000E+00  0.45962309016E+03  0.17618505270E+04  0.17008421134E+04 0.  0.
        5    1    3    3  502    0  0.23464833450E+03  0.17067384508E+03  0.10578624042E+04  0.10969431883E+04  0.46999998093E+01 0.  1.
       -5    1    3    3    0  502 -0.23464833450E+03 -0.17067384508E+03 -0.59823931399E+03  0.66490733872E+03  0.46999998093E+01 0. -1.
</event>
<event>
 5   0  0.6601906E-05  0.1700720E+04  0.7818609E-02  0.8760954E-01
        1   -1    0    0  501    0  0.00000000000E+00  0.00000000000E+00  0.20127740997E+04  0.20127740997E+04  0.50400001928E-02 0.  1.
       -1   -1    0    0    0  501  0.00000000000E+00  0.00000000000E+00 -0.35926148877E+03  0.35926148880E+03  0.50400001928E-02 0. -1.
    10030    2    1    2    0    0  0.00000000000E+00  0.00000000000E+00  0.16535126110E+04  0.23720355885E+04  0.17007201059E+04 0.  0.
        1    1    3    3  502    0 -0.41121258125E+03 -0.38610485514E+03 -0.60774450103E+02  0.56733260082E+03  0.50400001928E-02 0. -1.
       -1    1    3    3    0  502  0.41121258125E+03  0.38610485514E+03  0.17142870611E+04  0.18047029877E+04  0.50400001928E-02 0.  1.
</event>
<event>
 5   0  0.6601906E-05  0.1702699E+04  0.7818609E-02  0.8759826E-01
       -1   -1    0    0    0  501  0.00000000000E+00  0.00000000000E+00  0.13622889336E+04  0.13622889336E+04  0.50400001928E-02 0.  1.
        1   -1    0    0  501    0  0.00000000000E+00  0.00000000000E+00 -0.53204307262E+03  0.53204307264E+03  0.50400001928E-02 0. -1.
    10030    2    1    2    0    0  0.00000000000E+00  0.00000000000E+00  0.83024586095E+03  0.18943320062E+04  0.17026994920E+04 0.  0.
        1    1    3    3  502    0 -0.40136102637E+03 -0.65294110941E+03  0.27693512997E+01  0.76644010541E+03  0.50400001928E-02 0. -1.
       -1    1    3    3    0  502  0.40136102637E+03  0.65294110941E+03  0.82747650965E+03  0.11278919008E+04  0.50400001928E-02 0.  1.
</event>
<event>
 5   0  0.1393870E-04  0.1724346E+04  0.7818609E-02  0.8747599E-01
        2   -1    0    0  501    0  0.00000000000E+00  0.00000000000E+00  0.91693881251E+03  0.91693881251E+03  0.25500000920E-02 0. -1.
       -2   -1    0    0    0  501  0.00000000000E+00  0.00000000000E+00 -0.81067817652E+03  0.81067817652E+03  0.25500000920E-02 0.  1.
    10030    2    1    2    0    0  0.00000000000E+00  0.00000000000E+00  0.10626063599E+03  0.17276169890E+04  0.17243460030E+04 0.  0.
        3    1    3    3  502    0 -0.30774076894E+03 -0.53657407697E+02 -0.75198522333E+03  0.81428820732E+03  0.10100000352E+00 0.  1.
       -3    1    3    3    0  502  0.30774076894E+03  0.53657407697E+02  0.85824585933E+03  0.91332878172E+03  0.10100000352E+00 0. -1.
</event>
<event>
 5   0  0.6564887E-05  0.1696152E+04  0.7818609E-02  0.8763562E-01
        1   -1    0    0  501    0  0.00000000000E+00  0.00000000000E+00  0.10439473407E+04  0.10439473407E+04  0.50400001928E-02 0. -1.
       -1   -1    0    0    0  501  0.00000000000E+00  0.00000000000E+00 -0.68895512522E+03  0.68895512523E+03  0.50400001928E-02 0.  1.
    10030    2    1    2    0    0  0.00000000000E+00  0.00000000000E+00  0.35499221547E+03  0.17329024659E+04  0.16961519635E+04 0.  0.
        4    1    3    3  502    0 -0.66991078394E+03 -0.12558480503E+03 -0.33809586445E+03  0.76083009151E+03  0.12699999809E+01 0.  1.
       -4    1    3    3    0  502  0.66991078394E+03  0.12558480503E+03  0.69308807992E+03  0.97207237442E+03  0.12699999809E+01 0. -1.
</event>
<event>
 5   0  0.6601906E-05  0.1695336E+04  0.7818609E-02  0.8764029E-01
       -1   -1    0    0    0  501  0.00000000000E+00  0.00000000000E+00  0.62286450469E+03  0.62286450471E+03  0.50400001928E-02 0. -1.
        1   -1    0    0  501    0  0.00000000000E+00  0.00000000000E+00 -0.11536076468E+04  0.11536076468E+04  0.50400001928E-02 0.  1.
    10030    2    1    2    0    0  0.00000000000E+00  0.00000000000E+00 -0.53074314215E+03  0.17764721516E+04  0.16953362564E+04 0.  0.
        1    1    3    3  502    0  0.71453938754E+03  0.25576176246E+03 -0.66101355608E+03  0.10064390378E+04  0.50400001928E-02 0.  1.
       -1    1    3    3    0  502 -0.71453938754E+03 -0.25576176246E+03  0.13027041393E+03  0.77003311374E+03  0.50400001928E-02 0. -1.
</event>
<event>
 5   0  0.1333546E-04  0.1702058E+04  0.7818609E-02  0.8760191E-01
        2   -1    0    0  501    0  0.00000000000E+00  0.00000000000E+00  0.65762514508E+03  0.65762514508E+03  0.25500000920E-02 0.  1.
       -2   -1    0    0    0  501  0.00000000000E+00  0.00000000000E+00 -0.11013117896E+04  0.11013117896E+04  0.25500000920E-02 0. -1.
    10030    2    1    2    0    0  0.00000000000E+00  0.00000000000E+00 -0.44368664447E+03  0.17589369346E+04  0.17020579607E+04 0.  0.
        5    1    3    3  502    0  0.41677535410E+03 -0.62438402534E+03 -0.63607646640E+03  0.98395755396E+03  0.46999998093E+01 0. -1.
       -5    1    3    3    0  502 -0.41677535410E+03  0.62438402534E+03  0.19238982193E+03  0.77497938068E+03  0.46999998093E+01 0.  1.
</event>
<event>
 5   0  0.6834837E-05  0.1700375E+04  0.7818609E-02  0.8761151E-01
        1   -1    0    0  501    0  0.00000000000E+00  0.00000000000E+00  0.10118079246E+04  0.10118079246E+04  0.50400001928E-02 0.  1.
       -1   -1    0    0    0  501  0.00000000000E+00  0.00000000000E+00 -0.71438332583E+03  0.71438332585E+03  0.50400001928E-02 0. -1.
    10030    2    1    2    0    0  0.00000000000E+00  0.00000000000E+00  0.29742459874E+03  0.17261912504E+04  0.17003749119E+04 0.  0.
        5    1    3    3  502    0 -0.48252902172E+03  0.60372772081E+03  0.50831519091E+03  0.92505558805E+03  0.46999998093E+01 0.  1.
       -5    1    3    3    0  502  0.48252902172E+03 -0.60372772081E+03 -0.21089059217E+03  0.80113566238E+03  0.46999998093E+01 0. -1.
</event>
<event>
 5   0  0.1393870E-04  0.1674490E+04  0.7818609E-02  0.8776049E-01
       -2   -1    0    0    0  501  0.00000000000E+00  0.00000000000E+00  0.46447136236E+03  0.46447136237E+03  0.25500000920E-02 0.  1.
        2   -1    0    0  501    0  0.00000000000E+00  0.00000000000E+00 -0.15091987289E+04  0.15091987289E+04  0.25500000920E-02 0. -1.
    10030    2    1    2    0    0  0.00000000000E+00  0.00000000000E+00 -0.10447273665E+04  0.19736700912E+04  0.16744904773E+04 0.  0.
        3    1    3    3  502    0  0.28221731120E+03  0.59493845240E+03 -0.11318406777E+04  0.13094509165E+04  0.10100000352E+00 0. -1.
       -3    1    3    3    0  502 -0.28221731120E+03 -0.59493845240E+03  0.87113311182E+02  0.66421917472E+03  0.10100000352E+00 0.  1.
</event>
<event>
 5   0  0.6539134E-05  0.1699210E+04  0.7818609E-02  0.8761815E-01
        1   -1    0    0  501    0  0.00000000000E+00  0.00000000000E+00  0.15975741500E+04  0.15975741501E+04  0.50400001928E-02 0.  1.
       -1   -1    0    0    0  501  0.00000000000E+00  0.00000000000E+00 -0.45182800532E+03  0.45182800535E+03  0.50400001928E-02 0. -1.
    10030    2    1    2    0    0  0.00000000000E+00  0.00000000000E+00  0.11457461447E+04  0.20494021554E+04  0.16992101007E+04 0.  0.
        2    1    3    3  502    0  0.62892422197E+03  0.47911161724E+03  0.19775136075E+03  0.81498418356E+03  0.25500000920E-02 0.  1.
       -2    1    3    3    0  502 -0.62892422197E+03 -0.47911161724E+03  0.94799478397E+03  0.12344179718E+04  0.25500000920E-02 0. -1.
</event>
<event>
 5   0  0.6564887E-05  0.1698436E+04  0.7818609E-02  0.8762257E-01
       -1   -1    0    0    0  501  0.00000000000E+00  0.00000000000E+00  0.59751902864E+03  0.59751902866E+03  0.50400001928E-02 0.  1.
        1   -1    0    0  501    0  0.00000000000E+00  0.00000000000E+00 -0.12069430394E+04  0.12069430394E+04  0.50400001928E-02 0. -1.
    10030    2    1    2    0    0  0.00000000000E+00  0.00000000000E+00 -0.60942401075E+03  0.18044620681E+04  0.16984362603E+04 0.  0.
        4    1    3    3  502    0  0.48829145246E+03  0.37063089554E+02  0.43240585399E+03  0.65328297898E+03  0.12699999809E+01 0.  1.
       -4    1    3    3    0  502 -0.48829145246E+03 -0.37063089554E+02 -0.10418298647E+04  0.11511790891E+04  0.12699999809E+01 0. -1.
</event>
<event>
 5   0  0.6601906E-05  0.1695658E+04  0.7818609E-02  0.8763845E-01
        1   -1    0    0  501    0  0.00000000000E+00  0.00000000000E+00  0.52425985180E+03  0.52425985182E+03  0.50400001928E-02 0. -1.
       -1   -1    0    0    0  501  0.00000000000E+00  0.00000000000E+00 -0.13711024889E+04  0.13711024889E+04  0.50400001928E-02 0.  1.
    10030    2    1    2    0    0  0.00000000000E+00  0.00000000000E+00 -0.84684263706E+03  0.18953623407E+04  0.16956579698E+04 0.  0.
        1    1    3    3  502    0  0.45451159359E+03  0.55676946932E+03  0.79255141029E+02  0.72308672238E+03  0.50400001928E-02 0. -1.
       -1    1    3    3    0  502 -0.45451159359E+03 -0.55676946932E+03 -0.92609777809E+03  0.11722756183E+04  0.50400001928E-02 0.  1.
</event>
<event>
 5   0  0.6564887E-05  0.1692020E+04  0.7818609E-02  0.8765929E-01
        1   -1    0    0  501    0  0.00000000000E+00  0.00000000000E+00  0.16593349459E+04  0.16593349459E+04  0.50400001928E-02 0.  1.
       -1   -1    0    0    0  501  0.00000000000E+00  0.00000000000E+00 -0.43133708345E+03  0.43133708348E+03  0.50400001928E-02 0. -1.
    10030    2    1    2    0    0  0.00000000000E+00  0.00000000000E+00  0.12279978624E+04  0.20906720294E+04  0.16920197352E+04 0.  0.
        4    1    3    3  502    0  0.16545474594E+03  0.55413847461E+03 -0.14896871154E+03  0.59719177148E+03  0.12699999809E+01 0. -1.
       -4    1    3    3    0  502 -0.16545474594E+03 -0.55413847461E+03  0.13769665739E+04  0.14934802579E+04  0.12699999809E+01 0.  1.
</event>
<event>
 5   0  0.1269175E-04  0.1701024E+04  0.7818609E-02  0.8760780E-01
        2   -1    0    0  501    0  0.00000000000E+00  0.00000000000E+00  0.87669326239E+03  0.87669326239E+03  0.25500000920E-02 0.  1.
       -2   -1    0    0    0  501  0.00000000000E+00  0.00000000000E+00 -0.82511280299E+03  0.82511280300E+03  0.25500000920E-02 0. -1.
    10030    2    1    2    0    0  0.00000000000E+00  0.00000000000E+00  0.51580459398E+02  0.17018060654E+04  0.17010242034E+04 0.  0.
        2    1    3    3  502    0 -0.48566730015E+03 -0.40948459508E+03  0.59157689305E+03  0.86805160010E+03  0.25500000920E-02 0.  1.
       -2    1    3    3    0  502  0.48566730015E+03  0.40948459508E+03 -0.53999643365E+03  0.83375446529E+03  0.25500000920E-02 0. -1.
</event>
<event>
 5   0  0.1255362E-04  0.1722462E+04  0.7818609E-02  0.8748656E-01
        2   -1    0    0  501    0  0.00000000000E+00  0.00000000000E+00  0.80811239906E+03  0.80811239906E+03  0.25500000920E-02 0. -1.
       -2   -1    0    0    0  501  0.00000000000E+00  0.00000000000E+00 -0.91784119551E+03  0.91784119552E+03  0.25500000920E-02 0.  1.
    10030    2    1    2    0    0  0.00000000000E+00  0.00000000000E+00 -0.10972879645E+03  0.17259535946E+04  0.17224620175E+04 0.  0.
        1    1    3    3  502    0  0.16290035759E+03  0.84552209095E+03 -0.38256191277E+02  0.86192091805E+03  0.50400001928E-02 0.  1.
       -1    1    3    3    0  502 -0.16290035759E+03 -0.84552209095E+03 -0.71472605178E+02  0.86403267652E+03  0.50400001928E-02 0. -1.
</event>
<event>
 5   0  0.1393870E-04  0.1700264E+04  0.7818609E-02  0.8761214E-01
        2   -1    0    0  501    0  0.00000000000E+00  0.00000000000E+00  0.18614705102E+04  0.18614705102E+04  0.25500000920E-02 0.  1.
       -2   -1    0    0    0  501  0.00000000000E+00  0.00000000000E+00 -0.38825477542E+03  0.38825477543E+03  0.25500000920E-02 0. -1.
    10030    2    1    2    0    0  0.00000000000E+00  0.00000000000E+00  0.14732157348E+04  0.22497252856E+04  0.17002644675E+04 0.  0.
        3    1    3    3  502    0 -0.46166795048E+03  0.87510525299E+02 -0.20081239160E+03  0.51100001503E+03  0.10100000352E+00 0. -1.
       -3    1    3    3    0  502  0.46166795048E+03 -0.87510525299E+02  0.16740281264E+04  0.17387252706E+04  0.10100000352E+00 0.  1.
</event>
<event>
 5   0  0.1255362E-04  0.1705273E+04  0.7818609E-02  0.8758363E-01
        2   -1    0    0  501    0  0.00000000000E+00  0.00000000000E+00  0.17588996143E+04  0.17588996143E+04  0.25500000920E-02 0.  1.
       -2   -1    0    0    0  501  0.00000000000E+00  0.00000000000E+00 -0.41332010622E+03  0.41332010622E+03  0.25500000920E-02 0. -1.
    10030    2    1    2    0    0  0.00000000000E+00  0.00000000000E+00  0.13455795081E+04  0.21722197206E+04  0.17052725007E+04 0.  0.
        1    1    3    3  502    0  0.13608207273E+03  0.83943653060E+03  0.75148450799E+03  0.11348572532E+04  0.50400001928E-02 0. -1.
       -1    1    3    3    0  502 -0.13608207273E+03 -0.83943653060E+03  0.59409500012E+03  0.10373624673E+04  0.50400001928E-02 0.  1.
</event>
<event>
 5   0  0.1285639E-04  0.1639742E+04  0.7818609E-02  0.8796498E-01
       -2   -1    0    0    0  501  0.00000000000E+00  0.00000000000E+00  0.33265823741E+03  0.33265823742E+03  0.25500000920E-02 0. -1.
        2   -1    0    0  501    0  0.00000000000E+00  0.00000000000E+00 -0.20206571316E+04  0.20206571316E+04  0.25500000920E-02 0.  1.
    10030    2    1    2    0    0  0.00000000000E+00  0.00000000000E+00 -0.16879988942E+04  0.23533153691E+04  0.16397417356E+04 0.  0.
        4    1    3    3  502    0 -0.56113457898E+03  0.25919998227E+03 -0.16170376995E+04  0.17311467821E+04  0.12699999809E+01 0.  1.
       -4    1    3    3    0  502  0.56113457898E+03 -0.25919998227E+03 -0.70961194684E+02  0.62216858695E+03  0.12699999809E+01 0. -1.
</event>
<event>
 5   0  0.6615842E-05  0.1694347E+04  0.7818609E-02  0.8764595E-01
       -1   -1    0    0    0  501  0.00000000000E+00  0.00000000000E+00  0.84976317756E+03  0.84976317758E+03  0.50400001928E-02 0. -1.
        1   -1    0    0  501    0  0.00000000000E+00  0.00000000000E+00 -0.84459124448E+03  0.84459124450E+03  0.50400001928E-02 0.  1.
    10030    2    1    2    0    0  0.00000000000E+00  0.00000000000E+00  0.51719330769E+01  0.16943544221E+04  0.16943465285E+04 0.  0.
        3    1    3    3  502    0 -0.11425693034E+03  0.80660125159E+03  0.23505705683E+03  0.84788681754E+03  0.10100000352E+00 0.  1.
       -3    1    3    3    0  502  0.11425693034E+03 -0.80660125159E+03 -0.22988512375E+03  0.84646760453E+03  0.10100000352E+00 0. -1.
</event>
<event>
 5   0  0.6601906E-05  0.1700109E+04  0.7818609E-02  0.8761302E-01
       -1   -1    0    0    0  501  0.00000000000E+00  0.00000000000E+00  0.69748984157E+03  0.69748984159E+03  0.50400001928E-02 0.  1.
        1   -1    0    0  501    0  0.00000000000E+00  0.00000000000E+00 -0.10359902988E+04  0.10359902988E+04  0.50400001928E-02 0. -1.
    10030    2    1    2    0    0  0.00000000000E+00  0.00000000000E+00 -0.33850045721E+03  0.17334801404E+04  0.17001090664E+04 0.  0.
        1    1    3    3  502    0  0.60365783396E+03 -0.58299221790E+03 -0.30722074565E+03  0.89368187473E+03  0.50400001928E-02 0. -1.
       -1    1    3    3    0  502 -0.60365783396E+03  0.58299221790E+03 -0.31279711557E+02  0.83979826566E+03  0.50400001928E-02 0.  1.
</event>
<event>
 5   0  0.4720875E-05  0.1694266E+04  0.7818609E-02  0.8764641E-01
       -3   -1    0    0    0  501  0.00000000000E+00  0.00000000000E+00  0.66001409839E+03  0.66001410612E+03  0.10100000352E+00 0. -1.
        3   -1    0    0  501    0  0.00000000000E+00  0.00000000000E+00 -0.10873015156E+04  0.10873015203E+04  0.10100000352E+00 0.  1.
    10030    2    1    2    0    0  0.00000000000E+00  0.00000000000E+00 -0.42728741726E+03  0.17473156265E+04  0.16942660244E+04 0.  0.
        4    1    3    3  502    0  0.36148427701E+03  0.39131210569E+03  0.46564265028E+03  0.70754557256E+03  0.12699999809E+01 0. -1.
       -4    1    3    3    0  502 -0.36148427701E+03 -0.39131210569E+03 -0.89293006754E+03  0.10397700539E+04  0.12699999809E+01 0.  1.
</event>
<event>
 5   0  0.6601906E-05  0.1726283E+04  0.7818609E-02  0.8746514E-01
       -1   -1    0    0    0  501  0.00000000000E+00  0.00000000000E+00  0.54193590038E+03  0.54193590040E+03  0.50400001928E-02 0. -1.
        1   -1    0    0  501    0  0.00000000000E+00  0.00000000000E+00 -0.13747264757E+04  0.13747264757E+04  0.50400001928E-02 0.  1.
    10030    2    1    2    0    0  0.00000000000E+00  0.00000000000E+00 -0.83279057528E+03  0.19166623761E+04  0.17262834418E+04 0.  0.
        1    1    3    3  502    0 -0.70103489407E+03 -0.38465086863E+03 -0.55583495345E+02  0.80155831879E+03  0.50400001928E-02 0. -1.
       -1    1    3    3    0  502  0.70103489407E+03  0.38465086863E+03 -0.77720707994E+03  0.11151040573E+04  0.50400001928E-02 0.  1.
</event>
<event>
 5   0  0.6564887E-05  0.1709040E+04  0.7818609E-02  0.8756225E-01
        1   -1    0    0  501    0  0.00000000000E+00  0.00000000000E+00  0.11052707180E+04  0.11052707180E+04  0.50400001928E-02 0.  1.
       -1   -1    0    0    0  501  0.00000000000E+00  0.00000000000E+00 -0.66065700099E+03  0.66065700101E+03  0.50400001928E-02 0. -1.
    10030    2    1    2    0    0  0.00000000000E+00  0.00000000000E+00  0.44461371698E+03  0.17659277190E+04  0.17090404768E+04 0.  0.
        4    1    3    3  502    0 -0.17027636019E+03 -0.66139455367E+03 -0.30837022781E+03  0.74935345783E+03  0.12699999809E+01 0. -1.
       -4    1    3    3    0  502  0.17027636019E+03  0.66139455367E+03  0.75298394479E+03  0.10165742612E+04  0.12699999809E+01 0.  1.
</event>
<event>
 5   0  0.6615842E-05  0.1687436E+04  0.7818609E-02  0.8768563E-01
        1   -1    0    0  501    0  0.00000000000E+00  0.00000000000E+00  0.23652715697E+04  0.23652715697E+04  0.50400001928E-02 0. -1.
       -1   -1    0    0    0  501  0.00000000000E+00  0.00000000000E+00 -0.30096329234E+03  0.30096329238E+03  0.50400001928E-02 0.  1.
    10030    2    1    2    0    0  0.00000000000E+00  0.00000000000E+00  0.20643082773E+04  0.26662348621E+04  0.16874358286E+04 0.  0.
        3    1    3    3  502    0 -0.49821399080E+03 -0.27828717925E+03  0.20140754693E+04  0.20933611587E+04  0.10100000352E+00 0. -1.
       -3    1    3    3    0  502  0.49821399080E+03  0.27828717925E+03  0.50232808066E+02  0.57287370334E+03  0.10100000352E+00 0.  1.
</event>
<event>
 5   0  0.1285639E-04  0.1700206E+04  0.7818609E-02  0.8761247E-01
        2   -1    0    0  501    0  0.00000000000E+00  0.00000000000E+00  0.16392989480E+04  0.16392989480E+04  0.25500000920E-02 0. -1.
       -2   -1    0    0    0  501  0.00000000000E+00  0.00000000000E+00 -0.44084416679E+03  0.44084416680E+03  0.25500000920E-02 0.  1.
    10030    2    1    2    0    0  0.00000000000E+00  0.00000000000E+00  0.11984547812E+04  0.20801431148E+04  0.17002063155E+04 0.  0.
        4    1    3    3  502    0 -0.82590015660E+03 -0.19659299940E+03  0.54570320580E+03  0.10092341046E+04  0.12699999809E+01 0. -1.
       -4    1    3    3    0  502  0.82590015660E+03  0.19659299940E+03  0.65275157537E+03  0.10709090102E+04  0.12699999809E+01 0.  1.
</event>
<event>
 5   0  0.6539134E-05  0.1704637E+04  0.7818609E-02  0.8758724E-01
       -1   -1    0    0    0  501  0.00000000000E+00  0.00000000000E+00  0.49342006236E+03  0.49342006239E+03  0.50400001928E-02 0.  1.
        1   -1    0    0  501    0  0.00000000000E+00  0.00000000000E+00 -0.14722680904E+04  0.14722680904E+04  0.50400001928E-02 0. -1.
    10030    2    1    2    0    0  0.00000000000E+00  0.00000000000E+00 -0.97884802801E+03  0.19656881528E+04  0.17046367507E+04 0.  0.
        2    1    3    3  502    0  0.18338403736E+03 -0.17386517591E+03 -0.14280757619E+04  0.14502617648E+04  0.25500000920E-02 0. -1.
       -2    1    3    3    0  502 -0.18338403736E+03  0.17386517591E+03  0.44922773390E+03  0.51542638802E+03  0.25500000920E-02 0.  1.
</event>
<event>
 5   0  0.6615842E-05  0.1701624E+04  0.7818609E-02  0.8760439E-01
       -1   -1    0    0    0  501  0.00000000000E+00  0.00000000000E+00  0.49816120686E+03  0.49816120688E+03  0.50400001928E-02 0.  1.
        1   -1    0    0  501    0  0.00000000000E+00  0.00000000000E+00 -0.14531054362E+04  0.14531054362E+04  0.50400001928E-02 0. -1.
    10030    2    1    2    0    0  0.00000000000E+00  0.00000000000E+00 -0.95494422935E+03  0.19512666431E+04  0.17016236456E+04 0.  0.
        3    1    3    3  502    0 -0.43587822596E+03  0.67264917071E+03 -0.15023991878E+03  0.81548683504E+03  0.10100000352E+00 0.  1.
       -3    1    3    3    0  502  0.43587822596E+03 -0.67264917071E+03 -0.80470431057E+03  0.11357798081E+04  0.10100000352E+00 0. -1.
</event>
<event>
 5   0  0.1333546E-04  0.1696775E+04  0.7818609E-02  0.8763206E-01
        2   -1    0    0  501    0  0.00000000000E+00  0.00000000000E+00  0.21042863724E+04  0.21042863724E+04  0.25500000920E-02 0.  1.
       -2   -1    0    0    0  501  0.00000000000E+00  0.00000000000E+00 -0.34204550053E+03  0.34204550054E+03  0.25500000920E-02 0. -1.
    10030    2    1    2    0    0  0.00000000000E+00  0.00000000000E+00  0.17622408719E+04  0.24463318730E+04  0.16967753953E+04 0.  0.
        5    1    3    3  502    0 -0.77202331178E+03  0.32812792786E+03  0.10637836326E+04  0.13547492897E+04  0.46999998093E+01 0. -1.
       -5    1    3    3    0  502  0.77202331178E+03 -0.32812792786E+03  0.69845723935E+03  0.10915825833E+04  0.46999998093E+01 0.  1.
</event>
<event>
 5   0  0.6539134E-05  0.1710290E+04  0.7818609E-02  0.8755517E-01
        1   -1    0    0  501    0  0.00000000000E+00  0.00000000000E+00  0.13589595981E+04  0.13589595981E+04  0.50400001928E-02 0.  1.
       -1   -1    0    0    0  501  0.00000000000E+00  0.00000000000E+00 -0.53811229862E+03  0.53811229864E+03  0.50400001928E-02 0. -1.
    10030    2    1    2    0    0  0.00000000000E+00  0.00000000000E+00  0.82084729946E+03  0.18970718967E+04  0.17102898855E+04 0.  0.
        2    1    3    3  502    0  0.21007982969E+03 -0.16638941149E+03 -0.49033052629E+03  0.55878707583E+03  0.25500000920E-02 0. -1.
       -2    1    3    3    0  502 -0.21007982969E+03  0.16638941149E+03  0.13111778258E+04  0.13382848209E+04  0.25500000920E-02 0.  1.
</event>
<event>
 5   0  0.6834837E-05  0.1701799E+04  0.7818609E-02  0.8760339E-01
       -1   -1    0    0    0  501  0.00000000000E+00  0.00000000000E+00  0.11779881029E+04  0.11779881029E+04  0.50400001928E-02 0.  1.
        1   -1    0    0  501    0  0.00000000000E+00  0.00000000000E+00 -0.61463301013E+03  0.61463301015E+03  0.50400001928E-02 0. -1.
    10030    2    1    2    0    0  0.00000000000E+00  0.00000000000E+00  0.56335509274E+03  0.17926211130E+04  0.17017994871E+04 0.  0.
        5    1    3    3  502    0  0.74050625411E+02  0.42708913978E+03 -0.48960052429E+03  0.65392613637E+03  0.46999998093E+01 0. -1.
       -5    1    3    3    0  502 -0.74050625411E+02 -0.42708913978E+03  0.10529556170E+04  0.11386949767E+04  0.46999998093E+01 0.  1.
</event>
<event>
 5   0  0.6834837E-05  0.1699389E+04  0.7818609E-02  0.8761713E-01
        1   -1    0    0  501    0  0.00000000000E+00  0.00000000000E+00  0.11399908256E+04  0.11399908256E+04  0.50400001928E-02 0.  1.
       -1   -1    0    0    0  501  0.00000000000E+00  0.00000000000E+00 -0.63332175622E+03  0.63332175624E+03  0.50400001928E-02 0. -1.
    10030    2    1    2    0    0  0.00000000000E+00  0.00000000000E+00  0.50666906935E+03  0.17733125818E+04  0.16993892924E+04 0.  0.
        5    1    3    3  502    0  0.12263169635E+03 -0.27412889972E+03  0.10827520350E+04  0.11236366165E+04  0.46999998093E+01 0.  1.
       -5    1    3    3    0  502 -0.12263169635E+03  0.27412889972E+03 -0.57608296566E+03  0.64967596533E+03  0.46999998093E+01 0. -1.
</event>
<event>
 5   0  0.1269175E-04  0.1700692E+04  0.7818609E-02  0.8760970E-01
       -2   -1    0    0    0  501  0.00000000000E+00  0.00000000000E+00  0.47078224973E+03  0.47078224973E+03  0.25500000920E-02 0. -1.
        2   -1    0    0  501    0  0.00000000000E+00  0.00000000000E+00 -0.15359297731E+04  0.15359297731E+04  0.25500000920E-02 0.  1.
    10030    2    1    2    0    0  0.00000000000E+00  0.00000000000E+00 -0.10651475234E+04  0.20067120229E+04  0.17006921815E+04 0.  0.
        2    1    3    3  502    0 -0.23780379185E+02 -0.44707762314E+03  0.32045280565E+03  0.55057597859E+03  0.25500000920E-02 0. -1.
       -2    1    3    3    0  502  0.23780379185E+02  0.44707762314E+03 -0.13856003291E+04  0.14561360443E+04  0.25500000920E-02 0.  1.
</event>
<event>
 5   0  0.1269175E-04  0.1673891E+04  0.7818609E-02  0.8776397E-01
        2   -1    0    0  501    0  0.00000000000E+00  0.00000000000E+00  0.14677462043E+04  0.14677462043E+04  0.25500000920E-02 0. -1.
       -2   -1    0    0    0  501  0.00000000000E+00  0.00000000000E+00 -0.47724709695E+03  0.47724709696E+03  0.25500000920E-02 0.  1.
    10030    2    1    2    0    0  0.00000000000E+00  0.00000000000E+00  0.99049910734E+03  0.19449933013E+04  0.16738908149E+04 0.  0.
        2    1    3    3  502    0  0.32767867494E+03  0.41664549459E+03 -0.25734760368E+03  0.58923218794E+03  0.25500000920E-02 0.  1.
       -2    1    3    3    0  502 -0.32767867494E+03 -0.41664549459E+03  0.12478467110E+04  0.13557611133E+04  0.25500000920E-02 0. -1.
</event>
<event>
 5   0  0.1333546E-04  0.1703197E+04  0.7818609E-02  0.8759543E-01
       -2   -1    0    0    0  501  0.00000000000E+00  0.00000000000E+00  0.84825074844E+03  0.84825074844E+03  0.25500000920E-02 0.  1.
        2   -1    0    0  501    0  0.00000000000E+00  0.00000000000E+00 -0.85495951693E+03  0.85495951694E+03  0.25500000920E-02 0. -1.
    10030    2    1    2    0    0  0.00000000000E+00  0.00000000000E+00 -0.67087684940E+01  0.17032102654E+04  0.17031970528E+04 0.  0.
        5    1    3    3  502    0  0.54435035491E+03 -0.39588604129E+03  0.51833433144E+03  0.84955025497E+03  0.46999998093E+01 0.  1.
       -5    1    3    3    0  502 -0.54435035491E+03  0.39588604129E+03 -0.52504309994E+03  0.85366001040E+03  0.46999998093E+01 0. -1.
</event>
<event>
 5   0  0.1285639E-04  0.1692857E+04  0.7818609E-02  0.8765449E-01
        2   -1    0    0  501    0  0.00000000000E+00  0.00000000000E+00  0.12737004897E+04  0.12737004897E+04  0.25500000920E-02 0. -1.
       -2   -1    0    0    0  501  0.00000000000E+00  0.00000000000E+00 -0.56248811747E+03  0.56248811748E+03  0.25500000920E-02 0.  1.
    10030    2    1    2    0    0  0.00000000000E+00  0.00000000000E+00  0.71121237219E+03  0.18361886071E+04  0.16928572186E+04 0.  0.
        4    1    3    3  502    0  0.62791872450E+02 -0.25100068104E+03  0.12297543926E+04  0.12566788135E+04  0.12699999809E+01 0. -1.
       -4    1    3    3    0  502 -0.62791872450E+02  0.25100068104E+03 -0.51854202043E+03  0.57950979369E+03  0.12699999809E+01 0.  1.
</event>
<event>
 5   0  0.6601906E-05  0.1698284E+04  0.7818609E-02  0.8762344E-01
       -1   -1    0    0    0  501  0.00000000000E+00  0.00000000000E+00  0.58969017369E+03  0.58969017371E+03  0.50400001928E-02 0.  1.
        1   -1    0    0  501    0  0.00000000000E+00  0.00000000000E+00 -0.12227469105E+04  0.12227469105E+04  0.50400001928E-02 0. -1.
    10030    2    1    2    0    0  0.00000000000E+00  0.00000000000E+00 -0.63305673678E+03  0.18124370842E+04  0.16982836489E+04 0.  0.
        1    1    3    3  502    0 -0.48256206375E+03  0.68606382032E+03 -0.17538059758E+03  0.85691777024E+03  0.50400001928E-02 0.  1.
       -1    1    3    3    0  502  0.48256206375E+03 -0.68606382032E+03 -0.45767613921E+03  0.95551931396E+03  0.50400001928E-02 0. -1.
</event>
<event>
 5   0  0.1285639E-04  0.1699570E+04  0.7818609E-02  0.8761609E-01
        2   -1    0    0  501    0  0.00000000000E+00  0.00000000000E+00  0.17368135575E+04  0.17368135575E+04  0.25500000920E-02 0. -1.
       -2   -1    0    0    0  501  0.00000000000E+00  0.00000000000E+00 -0.41578146498E+03  0.41578146498E+03  0.25500000920E-02 0.  1.
    10030    2    1    2    0    0  0.00000000000E+00  0.00000000000E+00  0.13210320925E+04  0.21525950224E+04  0.16995703990E+04 0.  0.
        4    1    3    3  502    0 -0.12609194079E+03 -0.48714076243E+03 -0.20679772705E+03  0.54403328278E+03  0.12699999809E+01 0.  1.
       -4    1    3    3    0  502  0.12609194079E+03  0.48714076243E+03  0.15278298195E+04  0.16085617397E+04  0.12699999809E+01 0. -1.
</event>
<event>
 5   0  0.6564887E-05  0.1681368E+04  0.7818609E-02  0.8772063E-01
        1   -1    0    0  501    0  0.00000000000E+00  0.00000000000E+00  0.12796100768E+04  0.12796100768E+04  0.50400001928E-02 0.  1.
       -1   -1    0    0    0  501  0.00000000000E+00  0.00000000000E+00 -0.55231648333E+03  0.55231648336E+03  0.50400001928E-02 0. -1.
    10030    2    1    2    0    0  0.00000000000E+00  0.00000000000E+00  0.72729359347E+03  0.18319265602E+04  0.16813681782E+04 0.  0.
        4    1    3    3  502    0  0.18089510639E+03 -0.95831959107E+01 -0.53079827765E+03  0.56085943124E+03  0.12699999809E+01 0. -1.
       -4    1    3    3    0  502 -0.18089510639E+03  0.95831959107E+01  0.12580918711E+04  0.12710671289E+04  0.12699999809E+01 0.  1.
</event>
<event>
 5   0  0.1255362E-04  0.1704233E+04  0.7818609E-02  0.8758954E-01
        2   -1    0    0  501    0  0.00000000000E+00  0.00000000000E+00  0.15927089059E+04  0.15927089059E+04  0.25500000920E-02 0.  1.
       -2   -1    0    0    0  501  0.00000000000E+00  0.00000000000E+00 -0.45589135596E+03  0.45589135597E+03  0.25500000920E-02 0. -1.
    10030    2    1    2    0    0  0.00000000000E+00  0.00000000000E+00  0.11368175499E+04  0.20486002618E+04  0.17042326399E+04 0.  0.
        1    1    3    3  502    0 -0.42810806783E+03  0.20313258019E+03  0.14197252343E+04  0.14967161066E+04  0.50400001928E-02 0.  1.
       -1    1    3    3    0  502  0.42810806783E+03 -0.20313258019E+03 -0.28290768439E+03  0.55188415523E+03  0.50400001928E-02 0. -1.
</event>
<event>
 5   0  0.6615842E-05  0.1700007E+04  0.7818609E-02  0.8761360E-01
        1   -1    0    0  501    0  0.00000000000E+00  0.00000000000E+00  0.16420277726E+04  0.16420277726E+04  0.50400001928E-02 0. -1.
       -1   -1    0    0    0  501  0.00000000000E+00  0.00000000000E+00 -0.44000847182E+03  0.44000847185E+03  0.50400001928E-02 0.  1.
    10030    2    1    2    0    0  0.00000000000E+00  0.00000000000E+00  0.12020193007E+04  0.20820362444E+04  0.17000072128E+04 0.  0.
        3    1    3    3  502    0  0.23092830721E+03  0.75170900347E+03  0.20583641417E+03  0.81287326722E+03  0.10100000352E+00 0.  1.
       -3    1    3    3    0  502 -0.23092830721E+03 -0.75170900347E+03  0.99618288657E+03  0.12691629772E+04  0.10100000352E+00 0. -1.
</event>
<event>
 5   0  0.1393870E-04  0.1696801E+04  0.7818609E-02  0.8763191E-01
        2   -1    0    0  501    0  0.00000000000E+00  0.00000000000E+00  0.20178135430E+04  0.20178135430E+04  0.25500000920E-02 0.  1.
       -2   -1    0    0    0  501  0.00000000000E+00  0.00000000000E+00 -0.35671467761E+03  0.35671467762E+03  0.25500000920E-02 0. -1.
    10030    2    1    2    0    0  0.00000000000E+00  0.00000000000E+00  0.16610988654E+04  0.23745282206E+04  0.16968013525E+04 0.  0.
        3    1    3    3  502    0  0.42278439104E+03 -0.28064075237E+03  0.17820254893E+04  0.18528682435E+04  0.10100000352E+00 0.  1.
       -3    1    3    3    0  502 -0.42278439104E+03  0.28064075237E+03 -0.12092662384E+03  0.52165997715E+03  0.10100000352E+00 0. -1.
</event>
<event>
 5   0  0.6834837E-05  0.1704594E+04  0.7818609E-02  0.8758749E-01
       -1   -1    0    0    0  501  0.00000000000E+00  0.00000000000E+00  0.70838383914E+03  0.70838383915E+03  0.50400001928E-02 0.  1.
        1   -1    0    0  501    0  0.00000000000E+00  0.00000000000E+00 -0.10254470477E+04  0.10254470477E+04  0.50400001928E-02 0. -1.
    10030    2    1    2    0    0  0.00000000000E+00  0.00000000000E+00 -0.31706320852E+03  0.17338308868E+04  0.17045939299E+04 0.  0.
        5    1    3    3  502    0 -0.78031892732E+03  0.25138770913E+03 -0.39554024961E+03  0.91025688006E+03  0.46999998093E+01 0. -1.
       -5    1    3    3    0  502  0.78031892732E+03 -0.25138770913E+03  0.78477041091E+02  0.82357400676E+03  0.46999998093E+01 0.  1.
</event>
<event>
 5   0  0.1255362E-04  0.1695861E+04  0.7818609E-02  0.8763728E-01
        2   -1    0    0  501    0  0.00000000000E+00  0.00000000000E+00  0.15097415767E+04  0.15097415767E+04  0.25500000920E-02 0.  1.
       -2   -1    0    0    0  501  0.00000000000E+00  0.00000000000E+00 -0.47623142042E+03  0.47623142043E+03  0.25500000920E-02 0. -1.
    10030    2    1    2    0    0  0.00000000000E+00  0.00000000000E+00  0.10335101563E+04  0.19859729972E+04  0.16958612863E+04 0.  0.
        1    1    3    3  502    0 -0.37788452536E+03 -0.17298999866E+03 -0.34877935847E+03  0.54255810294E+03  0.50400001928E-02 0. -1.
       -1    1    3    3    0  502  0.37788452536E+03  0.17298999866E+03  0.13822895148E+04  0.14434148942E+04  0.50400001928E-02 0.  1.
</event>
<event>
 5   0  0.1393870E-04  0.1702528E+04  0.7818609E-02  0.8759924E-01
       -2   -1    0    0    0  501  0.00000000000E+00  0.00000000000E+00  0.80754229808E+03  0.80754229809E+03  0.25500000920E-02 0.  1.
        2   -1    0    0  501    0  0.00000000000E+00  0.00000000000E+00 -0.89735317617E+03  0.89735317618E+03  0.25500000920E-02 0. -1.
    10030    2    1    2    0    0  0.00000000000E+00  0.00000000000E+00 -0.89810878088E+02  0.17048954743E+04  0.17025282918E+04 0.  0.
        3    1    3    3  502    0  0.36217810339E+03  0.45187507779E+03 -0.66970128263E+03  0.88536087708E+03  0.10100000352E+00 0. -1.
       -3    1    3    3    0  502 -0.36217810339E+03 -0.45187507779E+03  0.57989040454E+03  0.81953459718E+03  0.10100000352E+00 0.  1.
</event>
<event>
 5   0  0.4720875E-05  0.1694343E+04  0.7818609E-02  0.8764597E-01
        3   -1    0    0  501    0  0.00000000000E+00  0.00000000000E+00  0.15512130777E+04  0.15512130810E+04  0.10100000352E+00 0. -1.
       -3   -1    0    0    0  501  0.00000000000E+00  0.00000000000E+00 -0.46267004040E+03  0.46267005142E+03  0.10100000352E+00 0.  1.
    10030    2    1    2    0    0  0.00000000000E+00  0.00000000000E+00  0.10885430373E+04  0.20138831324E+04  0.16943433321E+04 0.  0.
        4    1    3    3  502    0  0.15983637536E+03  0.68573544301E+03 -0.15651829316E+02  0.70429209661E+03  0.12699999809E+01 0.  1.
       -4    1    3    3    0  502 -0.15983637536E+03 -0.68573544301E+03  0.11041948666E+04  0.13095910358E+04  0.12699999809E+01 0. -1.
</event>
<event>
 5   0  0.6564887E-05  0.1709057E+04  0.7818609E-02  0.8756216E-01
       -1   -1    0    0    0  501  0.00000000000E+00  0.00000000000E+00  0.56080287648E+03  0.56080287651E+03  0.50400001928E-02 0. -1.
        1   -1    0    0  501    0  0.00000000000E+00  0.00000000000E+00 -0.13020948797E+04  0.13020948797E+04  0.50400001928E-02 0.  1.
    10030    2    1    2    0    0  0.00000000000E+00  0.00000000000E+00 -0.74129200319E+03  0.18628977562E+04  0.17090565280E+04 0.  0.
        4    1    3    3  502    0  0.82859109167E+03 -0.20711322851E+03 -0.40065320386E+03  0.94338946850E+03  0.12699999809E+01 0.  1.
       -4    1    3    3    0  502 -0.82859109167E+03  0.20711322851E+03 -0.34063879933E+03  0.91950828769E+03  0.12699999809E+01 0. -1.
</event>
<event>
 5   0  0.6539134E-05  0.1698950E+04  0.7818609E-02  0.8761964E-01
       -1   -1    0    0    0  501  0.00000000000E+00  0.00000000000E+00  0.49436323409E+03  0.49436323412E+03  0.50400001928E-02 0.  1.
        1   -1    0    0  501    0  0.00000000000E+00  0.00000000000E+00 -0.14596708306E+04  0.14596708306E+04  0.50400001928E-02 0. -1.
    10030    2    1    2    0    0  0.00000000000E+00  0.00000000000E+00 -0.96530759648E+03  0.19540340647E+04  0.16989497845E+04 0.  0.
        2    1    3    3  502    0 -0.18066273609E+02  0.56278432086E+03 -0.12141976758E+04  0.13384052369E+04  0.25500000920E-02 0. -1.
       -2    1    3    3    0  502  0.18066273609E+02 -0.56278432086E+03  0.24889007936E+03  0.61562882783E+03  0.25500000920E-02 0.  1.
</event>
<event>
 5   0  0.1285639E-04  0.1601199E+04  0.7818609E-02  0.8819812E-01
        2   -1    0    0  501    0  0.00000000000E+00  0.00000000000E+00  0.12471541607E+04  0.12471541607E+04  0.25500000920E-02 0. -1.
       -2   -1    0    0    0  501  0.00000000000E+00  0.00000000000E+00 -0.51393774040E+03  0.51393774041E+03  0.25500000920E-02 0.  1.
    10030    2    1    2    0    0  0.00000000000E+00  0.00000000000E+00  0.73321642030E+03  0.17610919011E+04  0.16011990398E+04 0.  0.
        4    1    3    3  502    0  0.44542742577E+03 -0.59115023856E+03  0.31027463158E+02  0.74082961101E+03  0.12699999809E+01 0.  1.
       -4    1    3    3    0  502 -0.44542742577E+03  0.59115023856E+03  0.70218895714E+03  0.10202622901E+04  0.12699999809E+01 0. -1.
</event>
<event>
 5   0  0.1255362E-04  0.1696596E+04  0.7818609E-02  0.8763308E-01
       -2   -1    0    0    0  501  0.00000000000E+00  0.00000000000E+00  0.10536106636E+04  0.10536106636E+04  0.25500000920E-02 0.  1.
        2   -1    0    0  501    0  0.00000000000E+00  0.00000000000E+00 -0.68299356133E+03  0.68299356134E+03  0.25500000920E-02 0. -1.
    10030    2    1    2    0    0  0.00000000000E+00  0.00000000000E+00  0.37061710223E+03  0.17366042249E+04  0.16965957673E+04 0.  0.
        1    1    3    3  502    0  0.46913107363E+03  0.68473615422E+03  0.36454273034E+03  0.90655334504E+03  0.50400001928E-02 0.  1.
       -1    1    3    3    0  502 -0.46913107363E+03 -0.68473615422E+03  0.60743718856E+01  0.83005087986E+03  0.50400001928E-02 0. -1.
</event>
<event>
 5   0  0.6601906E-05  0.1705000E+04  0.7818609E-02  0.8758518E-01
        1   -1    0    0  501    0  0.00000000000E+00  0.00000000000E+00  0.74002841057E+03  0.74002841058E+03  0.50400001928E-02 0.  1.
       -1   -1    0    0    0  501  0.00000000000E+00  0.00000000000E+00 -0.98206561254E+03  0.98206561256E+03  0.50400001928E-02 0. -1.
    10030    2    1    2    0    0  0.00000000000E+00  0.00000000000E+00 -0.24203720198E+03  0.17220940231E+04  0.17050002397E+04 0.  0.
        1    1    3    3  502    0  0.46557136006E+03  0.45323881374E+03 -0.67843414018E+03  0.93939075798E+03  0.50400001928E-02 0. -1.
       -1    1    3    3    0  502 -0.46557136006E+03 -0.45323881374E+03  0.43639693821E+03  0.78270326516E+03  0.50400001928E-02 0.  1.
</event>
<event>
 5   0  0.1333546E-04  0.1698357E+04  0.7818609E-02  0.8762302E-01
       -2   -1    0    0    0  501  0.00000000000E+00  0.00000000000E+00  0.66342928494E+03  0.66342928495E+03  0.25500000920E-02 0.  1.
        2   -1    0    0  501    0  0.00000000000E+00  0.00000000000E+00 -0.10869349914E+04  0.10869349914E+04  0.25500000920E-02 0. -1.
    10030    2    1    2    0    0  0.00000000000E+00  0.00000000000E+00 -0.42350570643E+03  0.17503642763E+04  0.16983574466E+04 0.  0.
        5    1    3    3  502    0 -0.56253701272E+03 -0.13855996460E+03  0.42809289351E+03  0.72036960649E+03  0.46999998093E+01 0.  1.
       -5    1    3    3    0  502  0.56253701272E+03  0.13855996460E+03 -0.85159859994E+03  0.10299946698E+04  0.46999998093E+01 0. -1.
</event>
<event>
 5   0  0.6564887E-05  0.1702438E+04  0.7818609E-02  0.8759975E-01
        1   -1    0    0  501    0  0.00000000000E+00  0.00000000000E+00  0.78410555683E+03  0.78410555684E+03  0.50400001928E-02 0. -1.
       -1   -1    0    0    0  501  0.00000000000E+00  0.00000000000E+00 -0.92407665122E+03  0.92407665123E+03  0.50400001928E-02 0.  1.
    10030    2    1    2    0    0  0.00000000000E+00  0.00000000000E+00 -0.13997109439E+03  0.17081822081E+04  0.17024378252E+04 0.  0.
        4    1    3    3  502    0 -0.66415067954E+03 -0.20227646299E+03  0.42418020533E+03  0.81359839731E+03  0.12699999809E+01 0.  1.
       -4    1    3    3    0  502  0.66415067954E+03  0.20227646299E+03 -0.56415129972E+03  0.89458381077E+03  0.12699999809E+01 0. -1.
</event>
<event>
 5   0  0.6615842E-05  0.1697406E+04  0.7818609E-02  0.8762845E-01
       -1   -1    0    0    0  501  0.00000000000E+00  0.00000000000E+00  0.47629708234E+03  0.47629708237E+03  0.50400001928E-02 0. -1.
        1   -1    0    0  501    0  0.00000000000E+00  0.00000000000E+00 -0.15122841950E+04  0.15122841950E+04  0.50400001928E-02 0.  1.
    10030    2    1    2    0    0  0.00000000000E+00  0.00000000000E+00 -0.10359871127E+04  0.19885812774E+04  0.16974057262E+04 0.  0.
        3    1    3    3  502    0  0.66950391862E+03  0.61100990950E+02 -0.11248562585E+04  0.13104466570E+04  0.10100000352E+00 0.  1.
       -3    1    3    3    0  502 -0.66950391862E+03 -0.61100990950E+02  0.88869145874E+02  0.67813462044E+03  0.10100000352E+00 0. -1.
</event>
<event>
 5   0  0.6539134E-05  0.1708705E+04  0.7818609E-02  0.8756415E-01
        1   -1    0    0  501    0  0.00000000000E+00  0.00000000000E+00  0.15571552319E+04  0.15571552319E+04  0.50400001928E-02 0.  1.
       -1   -1    0    0    0  501  0.00000000000E+00  0.00000000000E+00 -0.46875113055E+03  0.46875113058E+03  0.50400001928E-02 0. -1.
    10030    2    1    2    0    0  0.00000000000E+00  0.00000000000E+00  0.10884041013E+04  0.20259063624E+04  0.17087050950E+04 0.  0.
        2    1    3    3  502    0  0.65671435423E+03 -0.54443123371E+03  0.60030623040E+03  0.10430947615E+04  0.25500000920E-02 0. -1.
       -2    1    3    3    0  502 -0.65671435423E+03  0.54443123371E+03  0.48809787090E+03  0.98281160090E+03  0.25500000920E-02 0.  1.
</event>
<event>
 5   0  0.1285639E-04  0.1705784E+04  0.7818609E-02  0.8758072E-01
       -2   -1    0    0    0  501  0.00000000000E+00  0.00000000000E+00  0.51644894484E+03  0.51644894485E+03  0.25500000920E-02 0. -1.
        2   -1    0    0  501    0  0.00000000000E+00  0.00000000000E+00 -0.14085128394E+04  0.14085128394E+04  0.25500000920E-02 0.  1.
    10030    2    1    2    0    0  0.00000000000E+00  0.00000000000E+00 -0.89206389458E+03  0.19249617843E+04  0.17057842416E+04 0.  0.
        4    1    3    3  502    0  0.76362539978E+02  0.69007548604E+03  0.11298454910E+03  0.70342201784E+03  0.12699999809E+01 0. -1.
       -4    1    3    3    0  502 -0.76362539978E+02 -0.69007548604E+03 -0.10050484437E+04  0.12215397664E+04  0.12699999809E+01 0.  1.
</event>
<event>
 5   0  0.6601906E-05  0.1695030E+04  0.7818609E-02  0.8764204E-01
       -1   -1    0    0    0  501  0.00000000000E+00  0.00000000000E+00  0.81892815747E+03  0.81892815748E+03  0.50400001928E-02 0. -1.
        1   -1    0    0  501    0  0.00000000000E+00  0.00000000000E+00 -0.87709922900E+03  0.87709922901E+03  0.50400001928E-02 0.  1.
    10030    2    1    2    0    0  0.00000000000E+00  0.00000000000E+00 -0.58171071529E+02  0.16960273865E+04  0.16950295048E+04 0.  0.
        1    1    3    3  502    0  0.16451072391E+03 -0.80288411805E+03  0.18689929657E+03  0.84060575324E+03  0.50400001928E-02 0. -1.
       -1    1    3    3    0  502 -0.16451072391E+03  0.80288411805E+03 -0.24507036809E+03  0.85542163326E+03  0.50400001928E-02 0.  1.
</event>
<event>
 5   0  0.6615842E-05  0.1708076E+04  0.7818609E-02  0.8756772E-01
        1   -1    0    0  501    0  0.00000000000E+00  0.00000000000E+00  0.11312831334E+04  0.11312831335E+04  0.50400001928E-02 0.  1.
       -1   -1    0    0    0  501  0.00000000000E+00  0.00000000000E+00 -0.64473748554E+03  0.64473748556E+03  0.50400001928E-02 0. -1.
    10030    2    1    2    0    0  0.00000000000E+00  0.00000000000E+00  0.48654564790E+03  0.17760206190E+04  0.17080756926E+04 0.  0.
        3    1    3    3  502    0  0.82132162950E+03  0.69092882572E+02  0.10683877673E+02  0.82429193915E+03  0.10100000352E+00 0. -1.
       -3    1    3    3    0  502 -0.82132162950E+03 -0.69092882572E+02  0.47586177023E+03  0.95172867986E+03  0.10100000352E+00 0.  1.
</event>
<event>
 5   0  0.1269175E-04  0.1698889E+04  0.7818609E-02  0.8761998E-01
        2   -1    0    0  501    0  0.00000000000E+00  0.00000000000E+00  0.17813141346E+04  0.17813141346E+04  0.25500000920E-02 0.  1.
       -2   -1    0    0    0  501  0.00000000000E+00  0.00000000000E+00 -0.40506926615E+03  0.40506926616E+03  0.25500000920E-02 0. -1.
    10030    2    1    2    0    0  0.00000000000E+00  0.00000000000E+00  0.13762448685E+04  0.21863834008E+04  0.16988885888E+04 0.  0.
        2    1    3    3  502    0 -0.52543628744E+03  0.62520996612E+03  0.98879745188E+03  0.12824551434E+04  0.25500000920E-02 0. -1.
       -2    1    3    3    0  502  0.52543628744E+03 -0.62520996612E+03  0.38744741657E+03  0.90392825739E+03  0.25500000920E-02 0.  1.
</event>
<event>
 5   0  0.1285639E-04  0.1661954E+04  0.7818609E-02  0.8783366E-01
        2   -1    0    0  501    0  0.00000000000E+00  0.00000000000E+00  0.90544084701E+03  0.90544084701E+03  0.25500000920E-02 0. -1.
       -2   -1    0    0    0  501  0.00000000000E+00  0.00000000000E+00 -0.76263745360E+03  0.76263745360E+03  0.25500000920E-02 0.  1.
    10030    2    1    2    0    0  0.00000000000E+00  0.00000000000E+00  0.14280339341E+03  0.16680783006E+04  0.16619543940E+04 0.  0.
        4    1    3    3  502    0  0.53393822813E+03  0.58769176256E+03  0.31735535891E+03  0.85509512686E+03  0.12699999809E+01 0. -1.
       -4    1    3    3    0  502 -0.53393822813E+03 -0.58769176256E+03 -0.17455196550E+03  0.81298317375E+03  0.12699999809E+01 0.  1.
</event>
<event>
 5   0  0.6834837E-05  0.1693319E+04  0.7818609E-02  0.8765184E-01
        1   -1    0    0  501    0  0.00000000000E+00  0.00000000000E+00  0.12194096197E+04  0.12194096197E+04  0.50400001928E-02 0. -1.
       -1   -1    0    0    0  501  0.00000000000E+00  0.00000000000E+00 -0.58785197958E+03  0.58785197960E+03  0.50400001928E-02 0.  1.
    10030    2    1    2    0    0  0.00000000000E+00  0.00000000000E+00  0.63155764009E+03  0.18072615993E+04  0.16933190590E+04 0.  0.
        5    1    3    3  502    0 -0.18960071376E+03  0.53370107214E+03 -0.35587196646E+03  0.66891868831E+03  0.46999998093E+01 0.  1.
       -5    1    3    3    0  502  0.18960071376E+03 -0.53370107214E+03  0.98742960655E+03  0.11383429110E+04  0.46999998093E+01 0. -1.
</event>
<event>
 5   0  0.1285639E-04  0.1764886E+04  0.7818609E-02  0.8725199E-01
        2   -1    0    0  501    0  0.00000000000E+00  0.00000000000E+00  0.98468301978E+03  0.98468301978E+03  0.25500000920E-02 0. -1.
       -2   -1    0    0    0  501  0.00000000000E+00  0.00000000000E+00 -0.79081815374E+03  0.79081815374E+03  0.25500000920E-02 0.  1.
    10030    2    1    2    0    0  0.00000000000E+00  0.00000000000E+00  0.19386486604E+03  0.17755011735E+04  0.17648855008E+04 0.  0.
        4    1    3    3  502    0  0.45176041441E+03 -0.69800903234E+03  0.39434474031E+03  0.92022468364E+03  0.12699999809E+01 0. -1.
       -4    1    3    3    0  502 -0.45176041441E+03  0.69800903234E+03 -0.20047987427E+03  0.85527648989E+03  0.12699999809E+01 0.  1.
</event>
<event>
 5   0  0.6539134E-05  0.1697425E+04  0.7818609E-02  0.8762834E-01
       -1   -1    0    0    0  501  0.00000000000E+00  0.00000000000E+00  0.51192125310E+03  0.51192125313E+03  0.50400001928E-02 0.  1.
        1   -1    0    0  501    0  0.00000000000E+00  0.00000000000E+00 -0.14070778660E+04  0.14070778660E+04  0.50400001928E-02 0. -1.
    10030    2    1    2    0    0  0.00000000000E+00  0.00000000000E+00 -0.89515661291E+03  0.19189991191E+04  0.16974251847E+04 0.  0.
        2    1    3    3  502    0  0.19437870394E+03 -0.49880156879E+03 -0.11921257082E+04  0.13068090105E+04  0.25500000920E-02 0.  1.
       -2    1    3    3    0  502 -0.19437870394E+03  0.49880156879E+03  0.29696909534E+03  0.61219010868E+03  0.25500000920E-02 0. -1.
</event>
<event>
 5   0  0.1333546E-04  0.1696352E+04  0.7818609E-02  0.8763448E-01
        2   -1    0    0  501    0  0.00000000000E+00  0.00000000000E+00  0.11692521123E+04  0.11692521123E+04  0.25500000920E-02 0.  1.
       -2   -1    0    0    0  501  0.00000000000E+00  0.00000000000E+00 -0.61526729349E+03  0.61526729349E+03  0.25500000920E-02 0. -1.
    10030    2    1    2    0    0  0.00000000000E+00  0.00000000000E+00  0.55398481877E+03  0.17845194058E+04  0.16963520655E+04 0.  0.
        5    1    3    3  502    0 -0.81877133343E+02 -0.32455590953E+03 -0.54283277914E+03  0.63775380789E+03  0.46999998093E+01 0. -1.
       -5    1    3    3    0  502  0.81877133343E+02  0.32455590953E+03  0.10968175979E+04  0.11467655979E+04  0.46999998093E+01 0.  1.
</event>
<event>
 5   0  0.6564887E-05  0.1654262E+04  0.7818609E-02  0.8787889E-01
       -1   -1    0    0    0  501  0.00000000000E+00  0.00000000000E+00  0.28436026648E+03  0.28436026652E+03  0.50400001928E-02 0. -1.
        1   -1    0    0  501    0  0.00000000000E+00  0.00000000000E+00 -0.24059124277E+04  0.24059124278E+04  0.50400001928E-02 0.  1.
    10030    2    1    2    0    0  0.00000000000E+00  0.00000000000E+00 -0.21215521613E+04  0.26902726943E+04  0.16542622514E+04 0.  0.
        4    1    3    3  502    0  0.69102377641E+02  0.79497802166E+03 -0.70679071008E+03  0.10659830741E+04  0.12699999809E+01 0. -1.
       -4    1    3    3    0  502 -0.69102377641E+02 -0.79497802166E+03 -0.14147614512E+04  0.16242896202E+04  0.12699999809E+01 0.  1.
</event>
<event>
 5   0  0.1393870E-04  0.1695239E+04  0.7818609E-02  0.8764085E-01
       -2   -1    0    0    0  501  0.00000000000E+00  0.00000000000E+00  0.10992673536E+04  0.10992673536E+04  0.25500000920E-02 0. -1.
        2   -1    0    0  501    0  0.00000000000E+00  0.00000000000E+00 -0.65357942606E+03  0.65357942606E+03  0.25500000920E-02 0.  1.
    10030    2    1    2    0    0  0.00000000000E+00  0.00000000000E+00  0.44568792751E+03  0.17528467796E+04  0.16952386570E+04 0.  0.
        3    1    3    3  502    0  0.58535460813E+03  0.73742931558E+02 -0.40642621685E+03  0.71642188490E+03  0.10100000352E+00 0.  1.
       -3    1    3    3    0  502 -0.58535460813E+03 -0.73742931558E+02  0.85211414436E+03  0.10364248947E+04  0.10100000352E+00 0. -1.
</event>
<event>
 5   0  0.6539134E-05  0.1698271E+04  0.7818609E-02  0.8762351E-01
        1   -1    0    0  501    0  0.00000000000E+00  0.00000000000E+00  0.89967877575E+03  0.89967877577E+03  0.50400001928E-02 0. -1.
       -1   -1    0    0    0  501  0.00000000000E+00  0.00000000000E+00 -0.80143138560E+03  0.80143138562E+03  0.50400001928E-02 0.  1.
    10030    2    1    2    0    0  0.00000000000E+00  0.00000000000E+00  0.98247390148E+02  0.17011101614E+04  0.16982706591E+04 0.  0.
        2    1    3    3  502    0 -0.75095594880E+03 -0.39619384723E+03  0.60385546775E+02  0.85120550743E+03  0.25500000920E-02 0. -1.
       -2    1    3    3    0  502  0.75095594880E+03  0.39619384723E+03  0.37861843373E+02  0.84990465395E+03  0.25500000920E-02 0.  1.
</event>
<event>
 5   0  0.1269175E-04  0.1696847E+04  0.7818609E-02  0.8763165E-01
       -2   -1    0    0    0  501  0.00000000000E+00  0.00000000000E+00  0.72094989582E+03  0.72094989582E+03  0.25500000920E-02 0. -1.
        2   -1    0    0  501    0  0.00000000000E+00  0.00000000000E+00 -0.99843622479E+03  0.99843622479E+03  0.25500000920E-02 0.  1.
    10030    2    1    2    0    0  0.00000000000E+00  0.00000000000E+00 -0.27748632897E+03  0.17193861206E+04  0.16968470671E+04 0.  0.
        2    1    3    3  502    0  0.68868032790E+03  0.48166076329E+03 -0.25667121797E+03  0.87872509869E+03  0.25500000920E-02 0. -1.
       -2    1    3    3    0  502 -0.68868032790E+03 -0.48166076329E+03 -0.20815111001E+02  0.84066102192E+03  0.25500000920E-02 0.  1.
</event>
<event>
 5   0  0.4720875E-05  0.1672639E+04  0.7818609E-02  0.8777125E-01
       -3   -1    0    0    0  501  0.00000000000E+00  0.00000000000E+00  0.14880035991E+04  0.14880036025E+04  0.10100000352E+00 0. -1.
        3   -1    0    0  501    0  0.00000000000E+00  0.00000000000E+00 -0.47004620172E+03  0.47004621257E+03  0.10100000352E+00 0.  1.
    10030    2    1    2    0    0  0.00000000000E+00  0.00000000000E+00  0.10179573974E+04  0.19580498151E+04  0.16726391767E+04 0.  0.
        3    1    3    3  502    0  0.53272834391E+03 -0.12663528808E+03  0.12489778142E+04  0.13637380889E+04  0.10100000352E+00 0. -1.
       -3    1    3    3    0  502 -0.53272834391E+03  0.12663528808E+03 -0.23102041688E+03  0.59431172613E+03  0.10100000352E+00 0.  1.
</event>
<event>
 5   0  0.1285639E-04  0.1694754E+04  0.7818609E-02  0.8764362E-01
        2   -1    0    0  501    0  0.00000000000E+00  0.00000000000E+00  0.90877672475E+03  0.90877672475E+03  0.25500000920E-02 0. -1.
       -2   -1    0    0    0  501  0.00000000000E+00  0.00000000000E+00 -0.79012581541E+03  0.79012581541E+03  0.25500000920E-02 0.  1.
    10030    2    1    2    0    0  0.00000000000E+00  0.00000000000E+00  0.11865090934E+03  0.16989025402E+04  0.16947542013E+04 0.  0.
        4    1    3    3  502    0  0.37504319898E+03 -0.75612945920E+03  0.13472377182E+03  0.85471706884E+03  0.12699999809E+01 0.  1.
       -4    1    3    3    0  502 -0.37504319898E+03  0.75612945920E+03 -0.16072862474E+02  0.84418547132E+03  0.12699999809E+01 0. -1.
</event>
<event>
 5   0  0.1333546E-04  0.1663759E+04  0.7818609E-02  0.8782308E-01
       -2   -1    0    0    0  501  0.00000000000E+00  0.00000000000E+00  0.66435625548E+03  0.66435625549E+03  0.25500000920E-02 0.  1.
        2   -1    0    0  501    0  0.00000000000E+00  0.00000000000E+00 -0.10416456504E+04  0.10416456504E+04  0.25500000920E-02 0. -1.
    10030    2    1    2    0    0  0.00000000000E+00  0.00000000000E+00 -0.37728939495E+03  0.17060019059E+04  0.16637593622E+04 0.  0.
        5    1    3    3  502    0 -0.51147276265E+02  0.59244432996E+03  0.40784262262E+03  0.72108530896E+03  0.46999998093E+01 0.  1.
       -5    1    3    3    0  502  0.51147276265E+02 -0.59244432996E+03 -0.78513201756E+03  0.98491659696E+03  0.46999998093E+01 0. -1.
</event>
<event>
 5   0  0.6564887E-05  0.1703059E+04  0.7818609E-02  0.8759622E-01
        1   -1    0    0  501    0  0.00000000000E+00  0.00000000000E+00  0.10579302720E+04  0.10579302720E+04  0.50400001928E-02 0.  1.
       -1   -1    0    0    0  501  0.00000000000E+00  0.00000000000E+00 -0.68539704012E+03  0.68539704013E+03  0.50400001928E-02 0. -1.
    10030    2    1    2    0    0  0.00000000000E+00  0.00000000000E+00  0.37253323186E+03  0.17433273121E+04  0.17030587507E+04 0.  0.
        4    1    3    3  502    0 -0.61530302097E+03  0.38964079878E+03  0.63792826147E+03  0.96817965242E+03  0.12699999809E+01 0.  1.
       -4    1    3    3    0  502  0.61530302097E+03 -0.38964079878E+03 -0.26539502961E+03  0.77514765970E+03  0.12699999809E+01 0. -1.
</event>
<event>
 5   0  0.6539134E-05  0.1698115E+04  0.7818609E-02  0.8762440E-01
       -1   -1    0    0    0  501  0.00000000000E+00  0.00000000000E+00  0.68435420633E+03  0.68435420635E+03  0.50400001928E-02 0. -1.
        1   -1    0    0  501    0  0.00000000000E+00  0.00000000000E+00 -0.10533995508E+04  0.10533995508E+04  0.50400001928E-02 0.  1.
    10030    2    1    2    0    0  0.00000000000E+00  0.00000000000E+00 -0.36904534446E+03  0.17377537572E+04  0.16981147353E+04 0.  0.
        2    1    3    3  502    0  0.79044906861E+03 -0.30972213362E+03 -0.19750273734E+03  0.87163344439E+03  0.25500000920E-02 0.  1.
       -2    1    3    3    0  502 -0.79044906861E+03  0.30972213362E+03 -0.17154260712E+03  0.86612031276E+03  0.25500000920E-02 0. -1.
</event>
<event>
 5   0  0.1333546E-04  0.1697460E+04  0.7818609E-02  0.8762814E-01
       -2   -1    0    0    0  501  0.00000000000E+00  0.00000000000E+00  0.62205427172E+03  0.62205427173E+03  0.25500000920E-02 0. -1.
        2   -1    0    0  501    0  0.00000000000E+00  0.00000000000E+00 -0.11580059285E+04  0.11580059285E+04  0.25500000920E-02 0.  1.
    10030    2    1    2    0    0  0.00000000000E+00  0.00000000000E+00 -0.53595165680E+03  0.17800602002E+04  0.16974599077E+04 0.  0.
        5    1    3    3  502    0  0.24696038446E+03  0.54390073634E+03  0.36427464841E+03  0.69966817275E+03  0.46999998093E+01 0. -1.
       -5    1    3    3    0  502 -0.24696038446E+03 -0.54390073634E+03 -0.90022630522E+03  0.10803920275E+04  0.46999998093E+01 0.  1.
</event>
<event>
 5   0  0.6615842E-05  0.1726100E+04  0.7818609E-02  0.8746617E-01
        1   -1    0    0  501    0  0.00000000000E+00  0.00000000000E+00  0.88178481741E+03  0.88178481743E+03  0.50400001928E-02 0.  1.
       -1   -1    0    0    0  501  0.00000000000E+00  0.00000000000E+00 -0.84471368593E+03  0.84471368595E+03  0.50400001928E-02 0. -1.
    10030    2    1    2    0    0  0.00000000000E+00  0.00000000000E+00  0.37071131479E+02  0.17264985034E+04  0.17261004644E+04 0.  0.
        3    1    3    3  502    0 -0.39620963311E+03 -0.75292682684E+03  0.16339580148E+03  0.86635967016E+03  0.10100000352E+00 0. -1.
       -3    1    3    3    0  502  0.39620963311E+03  0.75292682684E+03 -0.12632467000E+03  0.86013883321E+03  0.10100000352E+00 0.  1.
</event>
<event>
 5   0  0.1255362E-04  0.1705740E+04  0.7818609E-02  0.8758097E-01
       -2   -1    0    0    0  501  0.00000000000E+00  0.00000000000E+00  0.57442993077E+03  0.57442993078E+03  0.25500000920E-02 0.  1.
        2   -1    0    0  501    0  0.00000000000E+00  0.00000000000E+00 -0.12662765132E+04  0.12662765132E+04  0.25500000920E-02 0. -1.
    10030    2    1    2    0    0  0.00000000000E+00  0.00000000000E+00 -0.69184658240E+03  0.18407064439E+04  0.17057398744E+04 0.  0.
        1    1    3    3  502    0 -0.63525461466E+03  0.52773483880E+03 -0.11615672344E+03  0.83399332728E+03  0.50400001928E-02 0. -1.
       -1    1    3    3    0  502  0.63525461466E+03 -0.52773483880E+03 -0.57568985896E+03  0.10067131167E+04  0.50400001928E-02 0.  1.
</event>
<event>
 5   0  0.6601906E-05  0.1698447E+04  0.7818609E-02  0.8762251E-01
       -1   -1    0    0    0  501  0.00000000000E+00  0.00000000000E+00  0.68557372986E+03  0.68557372988E+03  0.50400001928E-02 0. -1.
        1   -1    0    0  501    0  0.00000000000E+00  0.00000000000E+00 -0.10519369030E+04  0.10519369030E+04  0.50400001928E-02 0.  1.
    10030    2    1    2    0    0  0.00000000000E+00  0.00000000000E+00 -0.36636317314E+03  0.17375106329E+04  0.16984467094E+04 0.  0.
        1    1    3    3  502    0  0.36244748247E+03 -0.39539081516E+03  0.49035189986E+03  0.72673727026E+03  0.50400001928E-02 0. -1.
       -1    1    3    3    0  502 -0.36244748247E+03  0.39539081516E+03 -0.85671507301E+03  0.10107733626E+04  0.50400001928E-02 0.  1.
</event>
<event>
 5   0  0.1255362E-04  0.1713634E+04  0.7818609E-02  0.8753627E-01
        2   -1    0    0  501    0  0.00000000000E+00  0.00000000000E+00  0.83335175451E+03  0.83335175452E+03  0.25500000920E-02 0.  1.
       -2   -1    0    0    0  501  0.00000000000E+00  0.00000000000E+00 -0.88094255599E+03  0.88094255599E+03  0.25500000920E-02 0. -1.
    10030    2    1    2    0    0  0.00000000000E+00  0.00000000000E+00 -0.47590801473E+02  0.17142943105E+04  0.17136335952E+04 0.  0.
        1    1    3    3  502    0  0.24844036236E+03 -0.65286235155E+03 -0.52015518577E+03  0.87092667948E+03  0.50400001928E-02 0. -1.
       -1    1    3    3    0  502 -0.24844036236E+03  0.65286235155E+03  0.47256438430E+03  0.84336763102E+03  0.50400001928E-02 0.  1.
</event>
<event>
 5   0  0.1255362E-04  0.1607689E+04  0.7818609E-02  0.8815838E-01
        2   -1    0    0  501    0  0.00000000000E+00  0.00000000000E+00  0.14888847237E+04  0.14888847237E+04  0.25500000920E-02 0.  1.
       -2   -1    0    0    0  501  0.00000000000E+00  0.00000000000E+00 -0.43399312747E+03  0.43399312748E+03  0.25500000920E-02 0. -1.
    10030    2    1    2    0    0  0.00000000000E+00  0.00000000000E+00  0.10548915962E+04  0.19228778512E+04  0.16076886983E+04 0.  0.
        1    1    3    3  502    0  0.26074917595E+03 -0.58076375693E+02 -0.37934927721E+03  0.46397076666E+03  0.50400001928E-02 0. -1.
       -1    1    3    3    0  502 -0.26074917595E+03  0.58076375693E+02  0.14342408734E+04  0.14589070845E+04  0.50400001928E-02 0.  1.
</event>
<event>
 5   0  0.1333546E-04  0.1685860E+04  0.7818609E-02  0.8769470E-01
       -2   -1    0    0    0  501  0.00000000000E+00  0.00000000000E+00  0.62444583175E+03  0.62444583175E+03  0.25500000920E-02 0.  1.
        2   -1    0    0  501    0  0.00000000000E+00  0.00000000000E+00 -0.11378579165E+04  0.11378579165E+04  0.25500000920E-02 0. -1.
    10030    2    1    2    0    0  0.00000000000E+00  0.00000000000E+00 -0.51341208476E+03  0.17623037483E+04  0.16858595826E+04 0.  0.
        5    1    3    3  502    0 -0.13399742785E+02  0.37303948632E+03  0.53332155513E+03  0.65099307418E+03  0.46999998093E+01 0.  1.
       -5    1    3    3    0  502  0.13399742785E+02 -0.37303948632E+03 -0.10467336399E+04  0.11113106741E+04  0.46999998093E+01 0. -1.
</event>
<event>
 5   0  0.1393870E-04  0.1699825E+04  0.7818609E-02  0.8761464E-01
        2   -1    0    0  501    0  0.00000000000E+00  0.00000000000E+00  0.92625588976E+03  0.92625588977E+03  0.25500000920E-02 0. -1.
       -2   -1    0    0    0  501  0.00000000000E+00  0.00000000000E+00 -0.77986146539E+03  0.77986146540E+03  0.25500000920E-02 0.  1.
    10030    2    1    2    0    0  0.00000000000E+00  0.00000000000E+00  0.14639442437E+03  0.17061173552E+04  0.16998250210E+04 0.  0.
        3    1    3    3  502    0 -0.37938259528E+03 -0.32887273512E+03 -0.61509841800E+03  0.79399905764E+03  0.10100000352E+00 0.  1.
       -3    1    3    3    0  502  0.37938259528E+03  0.32887273512E+03  0.76149284236E+03  0.91211829753E+03  0.10100000352E+00 0. -1.
</event>
<event>
 5   0  0.6539134E-05  0.1699008E+04  0.7818609E-02  0.8761930E-01
       -1   -1    0    0    0  501  0.00000000000E+00  0.00000000000E+00  0.47876428392E+03  0.47876428395E+03  0.50400001928E-02 0.  1.
        1   -1    0    0  501    0  0.00000000000E+00  0.00000000000E+00 -0.15073323301E+04  0.15073323301E+04  0.50400001928E-02 0. -1.
    10030    2    1    2    0    0  0.00000000000E+00  0.00000000000E+00 -0.10285680462E+04  0.19860966141E+04  0.16990078089E+04 0.  0.
        2    1    3    3  502    0 -0.59076605832E+03  0.56493097939E+03 -0.78468206734E+03  0.11330831805E+04  0.25500000920E-02 0. -1.
       -2    1    3    3    0  502  0.59076605832E+03 -0.56493097939E+03 -0.24388597884E+03  0.85301343355E+03  0.25500000920E-02 0.  1.
</event>
<event>
 5   0  0.6615842E-05  0.1702326E+04  0.7818609E-02  0.8760039E-01
        1   -1    0    0  501    0  0.00000000000E+00  0.00000000000E+00  0.73690907720E+03  0.73690907722E+03  0.50400001928E-02 0.  1.
       -1   -1    0    0    0  501  0.00000000000E+00  0.00000000000E+00 -0.98313121408E+03  0.98313121409E+03  0.50400001928E-02 0. -1.
    10030    2    1    2    0    0  0.00000000000E+00  0.00000000000E+00 -0.24622213688E+03  0.17200402913E+04  0.17023258393E+04 0.  0.
        3    1    3    3  502    0  0.66603852457E+03 -0.49916762529E+03  0.56794189940E+02  0.83426687849E+03  0.10100000352E+00 0. -1.
       -3    1    3    3    0  502 -0.66603852457E+03  0.49916762529E+03 -0.30301632682E+03  0.88577341282E+03  0.10100000352E+00 0.  1.
</event>
<event>
 5   0  0.4720875E-05  0.1700641E+04  0.7818609E-02  0.8760999E-01
        3   -1    0    0  501    0  0.00000000000E+00  0.00000000000E+00  0.98339302811E+03  0.98339303330E+03  0.10100000352E+00 0.  1.
       -3   -1    0    0    0  501  0.00000000000E+00  0.00000000000E+00 -0.73525518334E+03  0.73525519027E+03  0.10100000352E+00 0. -1.
    10030    2    1    2    0    0  0.00000000000E+00  0.00000000000E+00  0.24813784478E+03  0.17186482236E+04  0.17006408576E+04 0.  0.
        5    1    3    3  502    0 -0.59138253745E+03 -0.47384927644E+02  0.73965268046E+03  0.94820188498E+03  0.46999998093E+01 0.  1.
       -5    1    3    3    0  502  0.59138253745E+03  0.47384927644E+02 -0.49151483568E+03  0.77044633860E+03  0.46999998093E+01 0. -1.
</event>
<event>
 5   0  0.6539134E-05  0.1702152E+04  0.7818609E-02  0.8760138E-01
        1   -1    0    0  501    0  0.00000000000E+00  0.00000000000E+00  0.15944142249E+04  0.15944142249E+04  0.50400001928E-02 0. -1.
       -1   -1    0    0    0  501  0.00000000000E+00  0.00000000000E+00 -0.45429236565E+03  0.45429236568E+03  0.50400001928E-02 0.  1.
    10030    2    1    2    0    0  0.00000000000E+00  0.00000000000E+00  0.11401218592E+04  0.20487065905E+04  0.17021518265E+04 0.  0.
        2    1    3    3  502    0 -0.81618054456E+03 -0.54820130568E+02  0.28734530255E+03  0.86701975233E+03  0.25500000920E-02 0.  1.
       -2    1    3    3    0  502  0.81618054456E+03  0.54820130568E+02  0.85277655665E+03  0.11816868382E+04  0.25500000920E-02 0. -1.
</event>
<event>
 5   0  0.6601906E-05  0.1678111E+04  0.7818609E-02  0.8773948E-01
        1   -1    0    0  501    0  0.00000000000E+00  0.00000000000E+00  0.14195349607E+04  0.14195349607E+04  0.50400001928E-02 0.  1.
       -1   -1    0    0    0  501  0.00000000000E+00  0.00000000000E+00 -0.49594695305E+03  0.49594695308E+03  0.50400001928E-02 0. -1.
    10030    2    1    2    0    0  0.00000000000E+00  0.00000000000E+00  0.92358800767E+03  0.19154819138E+04  0.16781108885E+04 0.  0.
        1    1    3    3  502    0 -0.77598790605E+03  0.28291127413E+03  0.63039691141E+03  0.10390362291E+04  0.50400001928E-02 0.  1.
       -1    1    3    3    0  502  0.77598790605E+03 -0.28291127413E+03  0.29319109626E+03  0.87644568475E+03  0.50400001928E-02 0. -1.
</event>
<event>
 5   0  0.1255362E-04  0.1701712E+04  0.7818609E-02  0.8760389E-01
       -2   -1    0    0    0  501  0.00000000000E+00  0.00000000000E+00  0.11667157654E+04  0.11667157654E+04  0.25500000920E-02 0.  1.
        2   -1    0    0  501    0  0.00000000000E+00  0.00000000000E+00 -0.62050754747E+03  0.62050754748E+03  0.25500000920E-02 0. -1.
    10030    2    1    2    0    0  0.00000000000E+00  0.00000000000E+00  0.54620821791E+03  0.17872233129E+04  0.17017120064E+04 0.  0.
        1    1    3    3  502    0  0.55736428673E+03 -0.16644581344E+03 -0.37906384955E+03  0.69429716908E+03  0.50400001928E-02 0. -1.
       -1    1    3    3    0  502 -0.55736428673E+03  0.16644581344E+03  0.92527206746E+03  0.10929261438E+04  0.50400001928E-02 0.  1.
</event>
<event>
 5   0  0.6615842E-05  0.1681292E+04  0.7818609E-02  0.8772107E-01
       -1   -1    0    0    0  501  0.00000000000E+00  0.00000000000E+00  0.42072955508E+03  0.42072955511E+03  0.50400001928E-02 0. -1.
        1   -1    0    0  501    0  0.00000000000E+00  0.00000000000E+00 -0.16796677486E+04  0.16796677486E+04  0.50400001928E-02 0.  1.
    10030    2    1    2    0    0  0.00000000000E+00  0.00000000000E+00 -0.12589381936E+04  0.21003973038E+04  0.16812921990E+04 0.  0.
        3    1    3    3  502    0  0.64534736160E+03 -0.20253680249E+03 -0.58421829376E+01  0.67640854133E+03  0.10100000352E+00 0. -1.
       -3    1    3    3    0  502 -0.64534736160E+03  0.20253680249E+03 -0.12530960106E+04  0.14239887624E+04  0.10100000352E+00 0.  1.
</event>
<event>
 5   0  0.1269175E-04  0.1705206E+04  0.7818609E-02  0.8758401E-01
       -2   -1    0    0    0  501  0.00000000000E+00  0.00000000000E+00  0.12815071643E+04  0.12815071643E+04  0.25500000920E-02 0.  1.
        2   -1    0    0  501    0  0.00000000000E+00  0.00000000000E+00 -0.56724750528E+03  0.56724750528E+03  0.25500000920E-02 0. -1.
    10030    2    1    2    0    0  0.00000000000E+00  0.00000000000E+00  0.71425965897E+03  0.18487546695E+04  0.17052058432E+04 0.  0.
        2    1    3    3  502    0  0.53798078701E+03 -0.61682303354E+03  0.61606062320E+03  0.10244143075E+04  0.25500000920E-02 0. -1.
       -2    1    3    3    0  502 -0.53798078701E+03  0.61682303354E+03  0.98199035770E+02  0.82434036206E+03  0.25500000920E-02 0.  1.
</event>
<event>
 5   0  0.6834837E-05  0.1697757E+04  0.7818609E-02  0.8762645E-01
        1   -1    0    0  501    0  0.00000000000E+00  0.00000000000E+00  0.10226822657E+04  0.10226822657E+04  0.50400001928E-02 0. -1.
       -1   -1    0    0    0  501  0.00000000000E+00  0.00000000000E+00 -0.70461252284E+03  0.70461252286E+03  0.50400001928E-02 0.  1.
    10030    2    1    2    0    0  0.00000000000E+00  0.00000000000E+00  0.31806974281E+03  0.17272947885E+04  0.16977570277E+04 0.  0.
        5    1    3    3  502    0 -0.48124716524E+03 -0.40283841694E+03  0.74055155768E+03  0.97072978928E+03  0.46999998093E+01 0. -1.
       -5    1    3    3    0  502  0.48124716524E+03  0.40283841694E+03 -0.42248181486E+03  0.75656499926E+03  0.46999998093E+01 0.  1.
</event>
<event>
 5   0  0.1285639E-04  0.1711711E+04  0.7818609E-02  0.8754713E-01
        2   -1    0    0  501    0  0.00000000000E+00  0.00000000000E+00  0.25916509887E+04  0.25916509888E+04  0.25500000920E-02 0. -1.
       -2   -1    0    0    0  501  0.00000000000E+00  0.00000000000E+00 -0.28263407673E+03  0.28263407674E+03  0.25500000920E-02 0.  1.
    10030    2    1    2    0    0  0.00000000000E+00  0.00000000000E+00  0.23090169120E+04  0.28742850655E+04  0.17117112892E+04 0.  0.
        4    1    3    3  502    0 -0.33231776656E+03  0.61493246761E+03  0.19838135531E+04  0.21033532428E+04  0.12699999809E+01 0. -1.
       -4    1    3    3    0  502  0.33231776656E+03 -0.61493246761E+03  0.32520335894E+03  0.77093182270E+03  0.12699999809E+01 0.  1.
</event>
<event>
 5   0  0.1255362E-04  0.1700917E+04  0.7818609E-02  0.8760841E-01
        2   -1    0    0  501    0  0.00000000000E+00  0.00000000000E+00  0.49973092238E+03  0.49973092239E+03  0.25500000920E-02 0. -1.
       -2   -1    0    0    0  501  0.00000000000E+00  0.00000000000E+00 -0.14473387499E+04  0.14473387499E+04  0.25500000920E-02 0.  1.
    10030    2    1    2    0    0  0.00000000000E+00  0.00000000000E+00 -0.94760782749E+03  0.19470696723E+04  0.17009173154E+04 0.  0.
        1    1    3    3  502    0 -0.58908334887E+03  0.56955101869E+03 -0.73451911307E+03  0.11004207751E+04  0.50400001928E-02 0.  1.
       -1    1    3    3    0  502  0.58908334887E+03 -0.56955101869E+03 -0.21308871441E+03  0.84664889715E+03  0.50400001928E-02 0. -1.
</event>
<event>
 5   0  0.1255362E-04  0.1700119E+04  0.7818609E-02  0.8761296E-01
        2   -1    0    0  501    0  0.00000000000E+00  0.00000000000E+00  0.10922170484E+04  0.10922170484E+04  0.25500000920E-02 0. -1.
       -2   -1    0    0    0  501  0.00000000000E+00  0.00000000000E+00 -0.66159121757E+03  0.66159121757E+03  0.25500000920E-02 0.  1.
    10030    2    1    2    0    0  0.00000000000E+00  0.00000000000E+00  0.43062583086E+03  0.17538082660E+04  0.17001190628E+04 0.  0.
        1    1    3    3  502    0  0.52491708441E+03 -0.36793072048E+03 -0.36061003014E+03  0.73549340883E+03  0.50400001928E-02 0.  1.
       -1    1    3    3    0  502 -0.52491708441E+03  0.36793072048E+03  0.79123586100E+03  0.10183148572E+04  0.50400001928E-02 0. -1.
</event>
<event>
 5   0  0.6564887E-05  0.1706023E+04  0.7818609E-02  0.8757937E-01
        1   -1    0    0  501    0  0.00000000000E+00  0.00000000000E+00  0.14746523498E+04  0.14746523498E+04  0.50400001928E-02 0. -1.
       -1   -1    0    0    0  501  0.00000000000E+00  0.00000000000E+00 -0.49342370898E+03  0.49342370900E+03  0.50400001928E-02 0.  1.
    10030    2    1    2    0    0  0.00000000000E+00  0.00000000000E+00  0.98122864085E+03  0.19680760588E+04  0.17060227805E+04 0.  0.
        4    1    3    3  502    0  0.24836733464E+03  0.39390027349E+03 -0.33385651061E+03  0.57297952926E+03  0.12699999809E+01 0.  1.
       -4    1    3    3    0  502 -0.24836733464E+03 -0.39390027349E+03  0.13150851515E+04  0.13950965296E+04  0.12699999809E+01 0. -1.
</event>
<event>
 5   0  0.1285639E-04  0.1696915E+04  0.7818609E-02  0.8763126E-01
        2   -1    0    0  501    0  0.00000000000E+00  0.00000000000E+00  0.64714340389E+03  0.64714340389E+03  0.25500000920E-02 0. -1.
       -2   -1    0    0    0  501  0.00000000000E+00  0.00000000000E+00 -0.11123966221E+04  0.11123966221E+04  0.25500000920E-02 0.  1.
    10030    2    1    2    0    0  0.00000000000E+00  0.00000000000E+00 -0.46525321826E+03  0.17595400260E+04  0.16969150085E+04 0.  0.
        4    1    3    3  502    0  0.58441643706E+03 -0.63715615625E+02 -0.86698575738E+03  0.10475056888E+04  0.12699999809E+01 0.  1.
       -4    1    3    3    0  502 -0.58441643706E+03  0.63715615625E+02  0.40173253912E+03  0.71203433728E+03  0.12699999809E+01 0. -1.
</event>
<event>
 5   0  0.1285639E-04  0.1698228E+04  0.7818609E-02  0.8762376E-01
       -2   -1    0    0    0  501  0.00000000000E+00  0.00000000000E+00  0.60494631774E+03  0.60494631775E+03  0.25500000920E-02 0.  1.
        2   -1    0    0  501    0  0.00000000000E+00  0.00000000000E+00 -0.11918322499E+04  0.11918322499E+04  0.25500000920E-02 0. -1.
    10030    2    1    2    0    0  0.00000000000E+00  0.00000000000E+00 -0.58688593217E+03  0.17967785677E+04  0.16982279364E+04 0.  0.
        4    1    3    3  502    0  0.72042033893E+03  0.44693139757E+03 -0.24337024653E+03  0.88203391583E+03  0.12699999809E+01 0. -1.
       -4    1    3    3    0  502 -0.72042033893E+03 -0.44693139757E+03 -0.34351568564E+03  0.91474465183E+03  0.12699999809E+01 0.  1.
</event>
<event>
 5   0  0.6539134E-05  0.1701437E+04  0.7818609E-02  0.8760545E-01
       -1   -1    0    0    0  501  0.00000000000E+00  0.00000000000E+00  0.93522731625E+03  0.93522731626E+03  0.50400001928E-02 0.  1.
        1   -1    0    0  501    0  0.00000000000E+00  0.00000000000E+00 -0.77384649236E+03  0.77384649238E+03  0.50400001928E-02 0. -1.
    10030    2    1    2    0    0  0.00000000000E+00  0.00000000000E+00  0.16138082389E+03  0.17090738086E+04  0.17014374843E+04 0.  0.
        2    1    3    3  502    0  0.23785435652E+03 -0.53249216332E+03  0.70282449804E+03  0.91328247216E+03  0.25500000920E-02 0.  1.
       -2    1    3    3    0  502 -0.23785435652E+03  0.53249216332E+03 -0.54144367415E+03  0.79579133647E+03  0.25500000920E-02 0. -1.
</event>
<event>
 5   0  0.1255362E-04  0.1699547E+04  0.7818609E-02  0.8761623E-01
       -2   -1    0    0    0  501  0.00000000000E+00  0.00000000000E+00  0.38364263940E+03  0.38364263941E+03  0.25500000920E-02 0. -1.
        2   -1    0    0  501    0  0.00000000000E+00  0.00000000000E+00 -0.18822603278E+04  0.18822603278E+04  0.25500000920E-02 0.  1.
    10030    2    1    2    0    0  0.00000000000E+00  0.00000000000E+00 -0.14986176884E+04  0.22659029672E+04  0.16995473753E+04 0.  0.
        1    1    3    3  502    0 -0.87277776840E+02 -0.26952630357E+02 -0.18756958301E+04  0.18779187155E+04  0.50400001928E-02 0.  1.
       -1    1    3    3    0  502  0.87277776840E+02  0.26952630357E+02  0.37707814174E+03  0.38798425176E+03  0.50400001928E-02 0. -1.
</event>
<event>
 5   0  0.6834837E-05  0.1698459E+04  0.7818609E-02  0.8762244E-01
        1   -1    0    0  501    0  0.00000000000E+00  0.00000000000E+00  0.27490075439E+04  0.27490075439E+04  0.50400001928E-02 0. -1.
       -1   -1    0    0    0  501  0.00000000000E+00  0.00000000000E+00 -0.26234583539E+03  0.26234583544E+03  0.50400001928E-02 0.  1.
    10030    2    1    2    0    0  0.00000000000E+00  0.00000000000E+00  0.24866617085E+04  0.30113533793E+04  0.16984589258E+04 0.  0.
        5    1    3    3  502    0 -0.30805126089E+03 -0.65175548899E+03  0.20391805319E+04  0.21628592484E+04  0.46999998093E+01 0. -1.
       -5    1    3    3    0  502  0.30805126089E+03  0.65175548899E+03  0.44748117657E+03  0.84849413088E+03  0.46999998093E+01 0.  1.
</event>
<event>
 5   0  0.6834837E-05  0.1705675E+04  0.7818609E-02  0.8758134E-01
        1   -1    0    0  501    0  0.00000000000E+00  0.00000000000E+00  0.16436040129E+04  0.16436040129E+04  0.50400001928E-02 0. -1.
       -1   -1    0    0    0  501  0.00000000000E+00  0.00000000000E+00 -0.44252259005E+03  0.44252259008E+03  0.50400001928E-02 0.  1.
    10030    2    1    2    0    0  0.00000000000E+00  0.00000000000E+00  0.12010814229E+04  0.20861266030E+04  0.17056751213E+04 0.  0.
        5    1    3    3  502    0  0.36540900226E+03 -0.44696091941E+03  0.13682540349E+04  0.14850720509E+04  0.46999998093E+01 0. -1.
       -5    1    3    3    0  502 -0.36540900226E+03  0.44696091941E+03 -0.16717261200E+03  0.60105455211E+03  0.46999998093E+01 0.  1.
</event>
<event>
 5   0  0.6834837E-05  0.1702539E+04  0.7818609E-02  0.8759917E-01
       -1   -1    0    0    0  501  0.00000000000E+00  0.00000000000E+00  0.44393309964E+03  0.44393309967E+03  0.50400001928E-02 0.  1.
        1   -1    0    0  501    0  0.00000000000E+00  0.00000000000E+00 -0.16323633383E+04  0.16323633384E+04  0.50400001928E-02 0. -1.
    10030    2    1    2    0    0  0.00000000000E+00  0.00000000000E+00 -0.11884302387E+04  0.20762964380E+04  0.17025394170E+04 0.  0.
        5    1    3    3  502    0  0.44327376473E+03  0.30457266154E+03  0.21047258176E+03  0.57756119531E+03  0.46999998093E+01 0.  1.
       -5    1    3    3    0  502 -0.44327376473E+03 -0.30457266154E+03 -0.13989028205E+04  0.14987352427E+04  0.46999998093E+01 0. -1.
</event>
<event>
 5   0  0.6539134E-05  0.1720348E+04  0.7818609E-02  0.8749844E-01
        1   -1    0    0  501    0  0.00000000000E+00  0.00000000000E+00  0.11442987803E+04  0.11442987803E+04  0.50400001928E-02 0.  1.
       -1   -1    0    0    0  501  0.00000000000E+00  0.00000000000E+00 -0.64659614060E+03  0.64659614062E+03  0.50400001928E-02 0. -1.
    10030    2    1    2    0    0  0.00000000000E+00  0.00000000000E+00  0.49770263970E+03  0.17908949209E+04  0.17203478428E+04 0.  0.
        2    1    3    3  502    0 -0.24281499454E+03 -0.27311912813E+03 -0.56176266939E+03  0.67017197528E+03  0.25500000920E-02 0. -1.
       -2    1    3    3    0  502  0.24281499454E+03  0.27311912813E+03  0.10594653091E+04  0.11207229457E+04  0.25500000920E-02 0.  1.
</event>
<event>
 5   0  0.1393870E-04  0.1704266E+04  0.7818609E-02  0.8758935E-01
       -2   -1    0    0    0  501  0.00000000000E+00  0.00000000000E+00  0.65296403894E+03  0.65296403895E+03  0.25500000920E-02 0.  1.
        2   -1    0    0  501    0  0.00000000000E+00  0.00000000000E+00 -0.11120525680E+04  0.11120525680E+04  0.25500000920E-02 0. -1.
    10030    2    1    2    0    0  0.00000000000E+00  0.00000000000E+00 -0.45908852905E+03  0.17650166069E+04  0.17042656323E+04 0.  0.
        3    1    3    3  502    0 -0.42979572805E+02  0.68276927522E+03 -0.75569871899E+03  0.10193633753E+04  0.10100000352E+00 0. -1.
       -3    1    3    3    0  502  0.42979572805E+02 -0.68276927522E+03  0.29661018994E+03  0.74565323163E+03  0.10100000352E+00 0.  1.
</event>
<event>
 5   0  0.1333546E-04  0.1704899E+04  0.7818609E-02  0.8758575E-01
        2   -1    0    0  501    0  0.00000000000E+00  0.00000000000E+00  0.17326866744E+04  0.17326866744E+04  0.25500000920E-02 0.  1.
       -2   -1    0    0    0  501  0.00000000000E+00  0.00000000000E+00 -0.41938933187E+03  0.41938933188E+03  0.25500000920E-02 0. -1.
    10030    2    1    2    0    0  0.00000000000E+00  0.00000000000E+00  0.13132973425E+04  0.21520760062E+04  0.17048991838E+04 0.  0.
        5    1    3    3  502    0  0.64418777907E+03  0.41976677116E+03  0.19205387127E+03  0.79252054632E+03  0.46999998093E+01 0. -1.
       -5    1    3    3    0  502 -0.64418777907E+03 -0.41976677116E+03  0.11212434712E+04  0.13595554599E+04  0.46999998093E+01 0.  1.
</event>
<event>
 5   0  0.1269175E-04  0.1704504E+04  0.7818609E-02  0.8758800E-01
        2   -1    0    0  501    0  0.00000000000E+00  0.00000000000E+00  0.28021475819E+04  0.28021475819E+04  0.25500000920E-02 0.  1.
       -2   -1    0    0    0  501  0.00000000000E+00  0.00000000000E+00 -0.25920594468E+03  0.25920594470E+03  0.25500000920E-02 0. -1.
    10030    2    1    2    0    0  0.00000000000E+00  0.00000000000E+00  0.25429416372E+04  0.30613535266E+04  0.17045038118E+04 0.  0.
        2    1    3    3  502    0  0.76391464306E+03 -0.33459364759E+02  0.59551075443E+03  0.96918428052E+03  0.25500000920E-02 0. -1.
       -2    1    3    3    0  502 -0.76391464306E+03  0.33459364759E+02  0.19474308827E+04  0.20921692460E+04  0.25500000920E-02 0.  1.
</event>
<event>
 5   0  0.6564887E-05  0.1696534E+04  0.7818609E-02  0.8763344E-01
       -1   -1    0    0    0  501  0.00000000000E+00  0.00000000000E+00  0.63515245349E+03  0.63515245351E+03  0.50400001928E-02 0.  1.
        1   -1    0    0  501    0  0.00000000000E+00  0.00000000000E+00 -0.11328883219E+04  0.11328883219E+04  0.50400001928E-02 0. -1.
    10030    2    1    2    0    0  0.00000000000E+00  0.00000000000E+00 -0.49773586839E+03  0.17680407754E+04  0.16965338749E+04 0.  0.
        4    1    3    3  502    0  0.31480910512E+03  0.33495149540E+03  0.49410298116E+03  0.67486046396E+03  0.12699999809E+01 0.  1.
       -4    1    3    3    0  502 -0.31480910512E+03 -0.33495149540E+03 -0.99183884954E+03  0.10931803114E+04  0.12699999809E+01 0. -1.
</event>
<event>
 5   0  0.1255362E-04  0.1696600E+04  0.7818609E-02  0.8763306E-01
        2   -1    0    0  501    0  0.00000000000E+00  0.00000000000E+00  0.19799536104E+04  0.19799536104E+04  0.25500000920E-02 0.  1.
       -2   -1    0    0    0  501  0.00000000000E+00  0.00000000000E+00 -0.36344946154E+03  0.36344946154E+03  0.25500000920E-02 0. -1.
    10030    2    1    2    0    0  0.00000000000E+00  0.00000000000E+00  0.16165041488E+04  0.23434030719E+04  0.16966002164E+04 0.  0.
        1    1    3    3  502    0 -0.29446631139E+03 -0.45075015736E+03 -0.97196475836E+02  0.54711357856E+03  0.50400001928E-02 0. -1.
       -1    1    3    3    0  502  0.29446631139E+03  0.45075015736E+03  0.17137006247E+04  0.17962894933E+04  0.50400001928E-02 0.  1.
</event>
<event>
 5   0  0.6539134E-05  0.1709403E+04  0.7818609E-02  0.8756019E-01
       -1   -1    0    0    0  501  0.00000000000E+00  0.00000000000E+00  0.96070536585E+03  0.96070536586E+03  0.50400001928E-02 0.  1.
        1   -1    0    0  501    0  0.00000000000E+00  0.00000000000E+00 -0.76039434444E+03  0.76039434445E+03  0.50400001928E-02 0. -1.
    10030    2    1    2    0    0  0.00000000000E+00  0.00000000000E+00  0.20031102141E+03  0.17210997103E+04  0.17094033192E+04 0.  0.
        2    1    3    3  502    0 -0.52407981716E+03 -0.14323564908E+03 -0.56416121503E+03  0.78323303204E+03  0.25500000920E-02 0. -1.
       -2    1    3    3    0  502  0.52407981716E+03  0.14323564908E+03  0.76447223645E+03  0.93786667828E+03  0.25500000920E-02 0.  1.
</event>
<event>
 5   0  0.6601906E-05  0.1675250E+04  0.7818609E-02  0.8775607E-01
        1   -1    0    0  501    0  0.00000000000E+00  0.00000000000E+00  0.57261331380E+03  0.57261331382E+03  0.50400001928E-02 0.  1.
       -1   -1    0    0    0  501  0.00000000000E+00  0.00000000000E+00 -0.12252868137E+04  0.12252868137E+04  0.50400001928E-02 0. -1.
    10030    2    1    2    0    0  0.00000000000E+00  0.00000000000E+00 -0.65267349987E+03  0.17979001275E+04  0.16752498832E+04 0.  0.
        1    1    3    3  502    0  0.23681656134E+03  0.44225417902E+03 -0.10462257494E+04  0.11602840865E+04  0.50400001928E-02 0. -1.
       -1    1    3    3    0  502 -0.23681656134E+03 -0.44225417902E+03  0.39355224956E+03  0.63761604100E+03  0.50400001928E-02 0.  1.
</event>
<event>
 5   0  0.6615842E-05  0.1704314E+04  0.7818609E-02  0.8758908E-01
       -1   -1    0    0    0  501  0.00000000000E+00  0.00000000000E+00  0.12626416218E+04  0.12626416218E+04  0.50400001928E-02 0.  1.
        1   -1    0    0  501    0  0.00000000000E+00  0.00000000000E+00 -0.57512109069E+03  0.57512109071E+03  0.50400001928E-02 0. -1.
    10030    2    1    2    0    0  0.00000000000E+00  0.00000000000E+00  0.68752053115E+03  0.18377627126E+04  0.17043143216E+04 0.  0.
        3    1    3    3  502    0 -0.66155892860E+03 -0.40846390029E+03  0.71988286654E+03  0.10595915843E+04  0.10100000352E+00 0.  1.
       -3    1    3    3    0  502  0.66155892860E+03  0.40846390029E+03 -0.32362335392E+02  0.77817112822E+03  0.10100000352E+00 0. -1.
</event>
<event>
 5   0  0.6539134E-05  0.1697693E+04  0.7818609E-02  0.8762681E-01
       -1   -1    0    0    0  501  0.00000000000E+00  0.00000000000E+00  0.78674440224E+03  0.78674440225E+03  0.50400001928E-02 0. -1.
        1   -1    0    0  501    0  0.00000000000E+00  0.00000000000E+00 -0.91585118957E+03  0.91585118959E+03  0.50400001928E-02 0.  1.
    10030    2    1    2    0    0  0.00000000000E+00  0.00000000000E+00 -0.12910678734E+03  0.17025955918E+04  0.16976934902E+04 0.  0.
        2    1    3    3  502    0  0.23662981551E+02 -0.49938576928E+01 -0.91550561294E+03  0.91582498472E+03  0.25500000920E-02 0.  1.
       -2    1    3    3    0  502 -0.23662981551E+02  0.49938576928E+01  0.78639882560E+03  0.78677060712E+03  0.25500000920E-02 0. -1.
</event>
<event>
 5   0  0.6615842E-05  0.1707155E+04  0.7818609E-02  0.8757294E-01
        1   -1    0    0  501    0  0.00000000000E+00  0.00000000000E+00  0.22545696590E+04  0.22545696590E+04  0.50400001928E-02 0.  1.
       -1   -1    0    0    0  501  0.00000000000E+00  0.00000000000E+00 -0.32316360360E+03  0.32316360364E+03  0.50400001928E-02 0. -1.
    10030    2    1    2    0    0  0.00000000000E+00  0.00000000000E+00  0.19314060554E+04  0.25777332627E+04  0.17071553598E+04 0.  0.
        3    1    3    3  502    0  0.47608482235E+03  0.47617047185E+03  0.17578193498E+04  0.18823718955E+04  0.10100000352E+00 0.  1.
       -3    1    3    3    0  502 -0.47608482235E+03 -0.47617047185E+03  0.17358670560E+03  0.69536136713E+03  0.10100000352E+00 0. -1.
</event>
<event>
 5   0  0.6601906E-05  0.1720979E+04  0.7818609E-02  0.8749489E-01
       -1   -1    0    0    0  501  0.00000000000E+00  0.00000000000E+00  0.44257852211E+03  0.44257852214E+03  0.50400001928E-02 0.  1.
        1   -1    0    0  501    0  0.00000000000E+00  0.00000000000E+00 -0.16730189206E+04  0.16730189206E+04  0.50400001928E-02 0. -1.
    10030    2    1    2    0    0  0.00000000000E+00  0.00000000000E+00 -0.12304403985E+04  0.21155974428E+04  0.17209790718E+04 0.  0.
        1    1    3    3  502    0 -0.28567961631E+03  0.66604966647E+03 -0.44943163900E+02  0.72612319160E+03  0.50400001928E-02 0.  1.
       -1    1    3    3    0  502  0.28567961631E+03 -0.66604966647E+03 -0.11854972346E+04  0.13894742512E+04  0.50400001928E-02 0. -1.
</event>
<event>
 5   0  0.6539134E-05  0.1691099E+04  0.7818609E-02  0.8766457E-01
       -1   -1    0    0    0  501  0.00000000000E+00  0.00000000000E+00  0.52450757128E+03  0.52450757131E+03  0.50400001928E-02 0.  1.
        1   -1    0    0  501    0  0.00000000000E+00  0.00000000000E+00 -0.13630962313E+04  0.13630962313E+04  0.50400001928E-02 0. -1.
    10030    2    1    2    0    0  0.00000000000E+00  0.00000000000E+00 -0.83858866001E+03  0.18876038026E+04  0.16910993983E+04 0.  0.
        2    1    3    3  502    0  0.27025355913E+03 -0.54651642049E+03 -0.10732357208E+04  0.12343225253E+04  0.25500000920E-02 0. -1.
       -2    1    3    3    0  502 -0.27025355913E+03  0.54651642049E+03  0.23464706080E+03  0.65328127728E+03  0.25500000920E-02 0.  1.
</event>
<event>
 5   0  0.1269175E-04  0.1662201E+04  0.7818609E-02  0.8783221E-01
        2   -1    0    0  501    0  0.00000000000E+00  0.00000000000E+00  0.12459789546E+04  0.12459789546E+04  0.25500000920E-02 0. -1.
       -2   -1    0    0    0  501  0.00000000000E+00  0.00000000000E+00 -0.55436557695E+03  0.55436557696E+03  0.25500000920E-02 0.  1.
    10030    2    1    2    0    0  0.00000000000E+00  0.00000000000E+00  0.69161337769E+03  0.18003445316E+04  0.16622007605E+04 0.  0.
        2    1    3    3  502    0 -0.25007150778E+03  0.61328921599E+02  0.12016895338E+04  0.12289649024E+04  0.25500000920E-02 0. -1.
       -2    1    3    3    0  502  0.25007150778E+03 -0.61328921599E+02 -0.51007615612E+03  0.57137962921E+03  0.25500000920E-02 0.  1.
</event>
<event>
 5   0  0.6539134E-05  0.1694944E+04  0.7818609E-02  0.8764253E-01
        1   -1    0    0  501    0  0.00000000000E+00  0.00000000000E+00  0.10426997603E+04  0.10426997603E+04  0.50400001928E-02 0. -1.
       -1   -1    0    0    0  501  0.00000000000E+00  0.00000000000E+00 -0.68879749132E+03  0.68879749133E+03  0.50400001928E-02 0.  1.
    10030    2    1    2    0    0  0.00000000000E+00  0.00000000000E+00  0.35390226901E+03  0.17314972517E+04  0.16949442223E+04 0.  0.
        2    1    3    3  502    0 -0.55789737032E+02  0.20333959931E+03 -0.66157310410E+03  0.69436190814E+03  0.25500000920E-02 0.  1.
       -2    1    3    3    0  502  0.55789737032E+02 -0.20333959931E+03  0.10154753731E+04  0.10371353435E+04  0.25500000920E-02 0. -1.
</event>
<event>
 5   0  0.6834837E-05  0.1702830E+04  0.7818609E-02  0.8759752E-01
       -1   -1    0    0    0  501  0.00000000000E+00  0.00000000000E+00  0.50594930733E+03  0.50594930736E+03  0.50400001928E-02 0.  1.
        1   -1    0    0  501    0  0.00000000000E+00  0.00000000000E+00 -0.14327668244E+04  0.14327668245E+04  0.50400001928E-02 0. -1.
    10030    2    1    2    0    0  0.00000000000E+00  0.00000000000E+00 -0.92681751711E+03  0.19387161318E+04  0.17028298593E+04 0.  0.
        5    1    3    3  502    0 -0.54451912824E+03 -0.57426096073E+03 -0.82092870475E+03  0.11402731078E+04  0.46999998093E+01 0.  1.
       -5    1    3    3    0  502  0.54451912824E+03  0.57426096073E+03 -0.10588881236E+03  0.79844302403E+03  0.46999998093E+01 0. -1.
</event>
<event>
 5   0  0.4720875E-05  0.1705749E+04  0.7818609E-02  0.8758092E-01
       -3   -1    0    0    0  501  0.00000000000E+00  0.00000000000E+00  0.55054772076E+03  0.55054773002E+03  0.10100000352E+00 0.  1.
        3   -1    0    0  501    0  0.00000000000E+00  0.00000000000E+00 -0.13212209127E+04  0.13212209165E+04  0.10100000352E+00 0. -1.
    10030    2    1    2    0    0  0.00000000000E+00  0.00000000000E+00 -0.77067319193E+03  0.18717686466E+04  0.17057493068E+04 0.  0.
        5    1    3    3  502    0  0.51734527184E+03  0.54833143075E+03  0.52303296380E+02  0.75569253870E+03  0.46999998093E+01 0. -1.
       -5    1    3    3    0  502 -0.51734527184E+03 -0.54833143075E+03 -0.82297648831E+03  0.11160761079E+04  0.46999998093E+01 0.  1.
</event>
<event>
 5   0  0.1393870E-04  0.1715101E+04  0.7818609E-02  0.8752798E-01
        2   -1    0    0  501    0  0.00000000000E+00  0.00000000000E+00  0.68825425707E+03  0.68825425708E+03  0.25500000920E-02 0.  1.
       -2   -1    0    0    0  501  0.00000000000E+00  0.00000000000E+00 -0.10684897261E+04  0.10684897261E+04  0.25500000920E-02 0. -1.
    10030    2    1    2    0    0  0.00000000000E+00  0.00000000000E+00 -0.38023546907E+03  0.17567439832E+04  0.17151006999E+04 0.  0.
        3    1    3    3  502    0 -0.39830406219E+03  0.20360599351E+03  0.55928254046E+03  0.71616932133E+03  0.10100000352E+00 0.  1.
       -3    1    3    3    0  502  0.39830406219E+03 -0.20360599351E+03 -0.93951800953E+03  0.10405746619E+04  0.10100000352E+00 0. -1.
</event>
<event>
 5   0  0.1393870E-04  0.1703775E+04  0.7818609E-02  0.8759214E-01
       -2   -1    0    0    0  501  0.00000000000E+00  0.00000000000E+00  0.95740027495E+03  0.95740027495E+03  0.25500000920E-02 0. -1.
        2   -1    0    0  501    0  0.00000000000E+00  0.00000000000E+00 -0.75800312438E+03  0.75800312439E+03  0.25500000920E-02 0.  1.
    10030    2    1    2    0    0  0.00000000000E+00  0.00000000000E+00  0.19939715056E+03  0.17154033993E+04  0.17037751022E+04 0.  0.
        3    1    3    3  502    0 -0.11331695770E+03  0.15087193482E+03 -0.73669934434E+03  0.76047945913E+03  0.10100000352E+00 0.  1.
       -3    1    3    3    0  502  0.11331695770E+03 -0.15087193482E+03  0.93609649490E+03  0.95492394021E+03  0.10100000352E+00 0. -1.
</event>
<event>
 5   0  0.1285639E-04  0.1688826E+04  0.7818609E-02  0.8767763E-01
        2   -1    0    0  501    0  0.00000000000E+00  0.00000000000E+00  0.12386617391E+04  0.12386617391E+04  0.25500000920E-02 0. -1.
       -2   -1    0    0    0  501  0.00000000000E+00  0.00000000000E+00 -0.57564829189E+03  0.57564829189E+03  0.25500000920E-02 0.  1.
    10030    2    1    2    0    0  0.00000000000E+00  0.00000000000E+00  0.66301344725E+03  0.18143100310E+04  0.16888262366E+04 0.  0.
        4    1    3    3  502    0  0.40826948168E+03 -0.26668880150E+03  0.10720938884E+04  0.11777919192E+04  0.12699999809E+01 0. -1.
       -4    1    3    3    0  502 -0.40826948168E+03  0.26668880150E+03 -0.40908044111E+03  0.63651811185E+03  0.12699999809E+01 0.  1.
</event>
<event>
 5   0  0.1393870E-04  0.1708713E+04  0.7818609E-02  0.8756410E-01
       -2   -1    0    0    0  501  0.00000000000E+00  0.00000000000E+00  0.69904928656E+03  0.69904928656E+03  0.25500000920E-02 0.  1.
        2   -1    0    0  501    0  0.00000000000E+00  0.00000000000E+00 -0.10441687497E+04  0.10441687497E+04  0.25500000920E-02 0. -1.
    10030    2    1    2    0    0  0.00000000000E+00  0.00000000000E+00 -0.34511946313E+03  0.17432180363E+04  0.17087134570E+04 0.  0.
        3    1    3    3  502    0  0.58626279950E+02 -0.84873055227E+03 -0.92587909186E+02  0.85577632719E+03  0.10100000352E+00 0.  1.
       -3    1    3    3    0  502 -0.58626279950E+02  0.84873055227E+03 -0.25253155395E+03  0.88744170907E+03  0.10100000352E+00 0. -1.
</event>
<event>
 5   0  0.1255362E-04  0.1676509E+04  0.7818609E-02  0.8774877E-01
       -2   -1    0    0    0  501  0.00000000000E+00  0.00000000000E+00  0.53921302727E+03  0.53921302727E+03  0.25500000920E-02 0. -1.
        2   -1    0    0  501    0  0.00000000000E+00  0.00000000000E+00 -0.13031402654E+04  0.13031402654E+04  0.25500000920E-02 0.  1.
    10030    2    1    2    0    0  0.00000000000E+00  0.00000000000E+00 -0.76392723817E+03  0.18423532927E+04  0.16765085237E+04 0.  0.
        1    1    3    3  502    0 -0.14823420443E+01 -0.58466213187E+03 -0.10420843988E+04  0.11948940957E+04  0.50400001928E-02 0. -1.
       -1    1    3    3    0  502  0.14823420443E+01  0.58466213187E+03  0.27815716059E+03  0.64745919701E+03  0.50400001928E-02 0.  1.
</event>
<event>
 5   0  0.1333546E-04  0.1699016E+04  0.7818609E-02  0.8761926E-01
       -2   -1    0    0    0  501  0.00000000000E+00  0.00000000000E+00  0.51435185766E+03  0.51435185766E+03  0.25500000920E-02 0. -1.
        2   -1    0    0  501    0  0.00000000000E+00  0.00000000000E+00 -0.14030548142E+04  0.14030548142E+04  0.25500000920E-02 0.  1.
    10030    2    1    2    0    0  0.00000000000E+00  0.00000000000E+00 -0.88870295652E+03  0.19174066718E+04  0.16990160094E+04 0.  0.
        5    1    3    3  502    0  0.70618433958E+03  0.37102436918E+03 -0.11477474652E+03  0.80594710523E+03  0.46999998093E+01 0. -1.
       -5    1    3    3    0  502 -0.70618433958E+03 -0.37102436918E+03 -0.77392821000E+03  0.11114595666E+04  0.46999998093E+01 0.  1.
</event>
<event>
 5   0  0.1333546E-04  0.1720388E+04  0.7818609E-02  0.8749821E-01
        2   -1    0    0  501    0  0.00000000000E+00  0.00000000000E+00  0.16695929969E+04  0.16695929969E+04  0.25500000920E-02 0. -1.
       -2   -1    0    0    0  501  0.00000000000E+00  0.00000000000E+00 -0.44318189010E+03  0.44318189011E+03  0.25500000920E-02 0.  1.
    10030    2    1    2    0    0  0.00000000000E+00  0.00000000000E+00  0.12264111068E+04  0.21127748870E+04  0.17203876076E+04 0.  0.
        5    1    3    3  502    0  0.40633751210E+03  0.17504566097E+03  0.15191264570E+04  0.15822510672E+04  0.46999998093E+01 0. -1.
       -5    1    3    3    0  502 -0.40633751210E+03 -0.17504566097E+03 -0.29271535021E+03  0.53052381984E+03  0.46999998093E+01 0.  1.
</event>
<event>
 5   0  0.6615842E-05  0.1703879E+04  0.7818609E-02  0.8759155E-01
        1   -1    0    0  501    0  0.00000000000E+00  0.00000000000E+00  0.12833933214E+04  0.12833933214E+04  0.50400001928E-02 0.  1.
       -1   -1    0    0    0  501  0.00000000000E+00  0.00000000000E+00 -0.56553246494E+03  0.56553246496E+03  0.50400001928E-02 0. -1.
    10030    2    1    2    0    0  0.00000000000E+00  0.00000000000E+00  0.71786085641E+03  0.18489257863E+04  0.17038786207E+04 0.  0.
        3    1    3    3  502    0 -0.46835832500E+03 -0.37148721183E+03  0.10175933496E+04  0.11801942656E+04  0.10100000352E+00 0.  1.
       -3    1    3    3    0  502  0.46835832500E+03  0.37148721183E+03 -0.29973249320E+03  0.66873152074E+03  0.10100000352E+00 0. -1.
</event>
<event>
 5   0  0.6601906E-05  0.1691425E+04  0.7818609E-02  0.8766270E-01
        1   -1    0    0  501    0  0.00000000000E+00  0.00000000000E+00  0.72968198791E+03  0.72968198793E+03  0.50400001928E-02 0.  1.
       -1   -1    0    0    0  501  0.00000000000E+00  0.00000000000E+00 -0.98019408392E+03  0.98019408393E+03  0.50400001928E-02 0. -1.
    10030    2    1    2    0    0  0.00000000000E+00  0.00000000000E+00 -0.25051209601E+03  0.17098760719E+04  0.16914253962E+04 0.  0.
        1    1    3    3  502    0 -0.23067455398E+03  0.66748494670E+03  0.34509677020E+03  0.78602715268E+03  0.50400001928E-02 0.  1.
       -1    1    3    3    0  502  0.23067455398E+03 -0.66748494670E+03 -0.59560886621E+03  0.92384891917E+03  0.50400001928E-02 0. -1.
</event>
<event>
 5   0  0.6615842E-05  0.1701359E+04  0.7818609E-02  0.8760589E-01
        1   -1    0    0  501    0  0.00000000000E+00  0.00000000000E+00  0.90516582824E+03  0.90516582825E+03  0.50400001928E-02 0.  1.
       -1   -1    0    0    0  501  0.00000000000E+00  0.00000000000E+00 -0.79947323525E+03  0.79947323527E+03  0.50400001928E-02 0. -1.
    10030    2    1    2    0    0  0.00000000000E+00  0.00000000000E+00  0.10569259298E+03  0.17046390635E+04  0.17013592838E+04 0.  0.
        3    1    3    3  502    0 -0.79018877476E+03  0.28915543615E+02 -0.26148038442E+03  0.83283036091E+03  0.10100000352E+00 0. -1.
       -3    1    3    3    0  502  0.79018877476E+03 -0.28915543615E+02  0.36717297741E+03  0.87180870261E+03  0.10100000352E+00 0.  1.
</event>
<event>
 5   0  0.6601906E-05  0.1691551E+04  0.7818609E-02  0.8766198E-01
        1   -1    0    0  501    0  0.00000000000E+00  0.00000000000E+00  0.14144919600E+04  0.14144919600E+04  0.50400001928E-02 0. -1.
       -1   -1    0    0    0  501  0.00000000000E+00  0.00000000000E+00 -0.50571979989E+03  0.50571979992E+03  0.50400001928E-02 0.  1.
    10030    2    1    2    0    0  0.00000000000E+00  0.00000000000E+00  0.90877216009E+03  0.19202117599E+04  0.16915514665E+04 0.  0.
        1    1    3    3  502    0  0.22570114219E+02 -0.51249734161E+03 -0.30895131266E+03  0.59884375995E+03  0.50400001928E-02 0.  1.
       -1    1    3    3    0  502 -0.22570114219E+02  0.51249734161E+03  0.12177234727E+04  0.13213680000E+04  0.50400001928E-02 0. -1.
</event>
<event>
 5   0  0.6564887E-05  0.1707329E+04  0.7818609E-02  0.8757195E-01
        1   -1    0    0  501    0  0.00000000000E+00  0.00000000000E+00  0.71824835158E+03  0.71824835160E+03  0.50400001928E-02 0.  1.
       -1   -1    0    0    0  501  0.00000000000E+00  0.00000000000E+00 -0.10146119568E+04  0.10146119568E+04  0.50400001928E-02 0. -1.
    10030    2    1    2    0    0  0.00000000000E+00  0.00000000000E+00 -0.29636360518E+03  0.17328603084E+04  0.17073293361E+04 0.  0.
        4    1    3    3  502    0 -0.36251546796E+03  0.74502530525E+03  0.60468553260E+02  0.83074558609E+03  0.12699999809E+01 0.  1.
       -4    1    3    3    0  502  0.36251546796E+03 -0.74502530525E+03 -0.35683215844E+03  0.90211472229E+03  0.12699999809E+01 0. -1.
</event>
<event>
 5   0  0.1285639E-04  0.1688315E+04  0.7818609E-02  0.8768057E-01
        2   -1    0    0  501    0  0.00000000000E+00  0.00000000000E+00  0.83888103703E+03  0.83888103704E+03  0.25500000920E-02 0. -1.
       -2   -1    0    0    0  501  0.00000000000E+00  0.00000000000E+00 -0.84946754731E+03  0.84946754731E+03  0.25500000920E-02 0.  1.
    10030    2    1    2    0    0  0.00000000000E+00  0.00000000000E+00 -0.10586510274E+02  0.16883485843E+04  0.16883153935E+04 0.  0.
        4    1    3    3  502    0  0.74858027754E+02 -0.29565347517E+03  0.78186001055E+03  0.83923857794E+03  0.12699999809E+01 0. -1.
       -4    1    3    3    0  502 -0.74858027754E+02  0.29565347517E+03 -0.79244652083E+03  0.84911000640E+03  0.12699999809E+01 0.  1.
</event>
<event>
 5   0  0.1333546E-04  0.1698769E+04  0.7818609E-02  0.8762066E-01
       -2   -1    0    0    0  501  0.00000000000E+00  0.00000000000E+00  0.68141683903E+03  0.68141683903E+03  0.25500000920E-02 0. -1.
        2   -1    0    0  501    0  0.00000000000E+00  0.00000000000E+00 -0.10587564005E+04  0.10587564005E+04  0.25500000920E-02 0.  1.
    10030    2    1    2    0    0  0.00000000000E+00  0.00000000000E+00 -0.37733956145E+03  0.17401732395E+04  0.16987694837E+04 0.  0.
        5    1    3    3  502    0  0.66529084212E+03 -0.22742349887E+03  0.29949410052E+03  0.76423305260E+03  0.46999998093E+01 0. -1.
       -5    1    3    3    0  502 -0.66529084212E+03  0.22742349887E+03 -0.67683366197E+03  0.97594018691E+03  0.46999998093E+01 0.  1.
</event>
<event>
 5   0  0.6601906E-05  0.1714710E+04  0.7818609E-02  0.8753019E-01
        1   -1    0    0  501    0  0.00000000000E+00  0.00000000000E+00  0.43233967103E+03  0.43233967105E+03  0.50400001928E-02 0. -1.
       -1   -1    0    0    0  501  0.00000000000E+00  0.00000000000E+00 -0.17001857758E+04  0.17001857759E+04  0.50400001928E-02 0.  1.
    10030    2    1    2    0    0  0.00000000000E+00  0.00000000000E+00 -0.12678461048E+04  0.21325254469E+04  0.17147101902E+04 0.  0.
        1    1    3    3  502    0  0.27063208780E+03  0.78494241096E+03 -0.89973433017E+03  0.12242949728E+04  0.50400001928E-02 0.  1.
       -1    1    3    3    0  502 -0.27063208780E+03 -0.78494241096E+03 -0.36811177465E+03  0.90823047413E+03  0.50400001928E-02 0. -1.
</event>
<event>
 5   0  0.1393870E-04  0.1706340E+04  0.7818609E-02  0.8757757E-01
        2   -1    0    0  501    0  0.00000000000E+00  0.00000000000E+00  0.14684068853E+04  0.14684068853E+04  0.25500000920E-02 0.  1.
       -2   -1    0    0    0  501  0.00000000000E+00  0.00000000000E+00 -0.49570666752E+03  0.49570666752E+03  0.25500000920E-02 0. -1.
    10030    2    1    2    0    0  0.00000000000E+00  0.00000000000E+00  0.97270021781E+03  0.19641135529E+04  0.17063400408E+04 0.  0.
        3    1    3    3  502    0  0.83364526080E+03 -0.14660048236E+03  0.60948185367E+03  0.10430360792E+04  0.10100000352E+00 0. -1.
       -3    1    3    3    0  502 -0.83364526080E+03  0.14660048236E+03  0.36321836415E+03  0.92107747369E+03  0.10100000352E+00 0.  1.
</event>
<event>
 5   0  0.1255362E-04  0.1700859E+04  0.7818609E-02  0.8760875E-01
       -2   -1    0    0    0  501  0.00000000000E+00  0.00000000000E+00  0.62932272692E+03  0.62932272692E+03  0.25500000920E-02 0.  1.
        2   -1    0    0  501    0  0.00000000000E+00  0.00000000000E+00 -0.11492200150E+04  0.11492200150E+04  0.25500000920E-02 0. -1.
    10030    2    1    2    0    0  0.00000000000E+00  0.00000000000E+00 -0.51989728804E+03  0.17785427419E+04  0.17008589285E+04 0.  0.
        1    1    3    3  502    0 -0.34175952243E+03 -0.12442477392E+03  0.54389406859E+03  0.65429492846E+03  0.50400001928E-02 0.  1.
       -1    1    3    3    0  502  0.34175952243E+03  0.12442477392E+03 -0.10637913566E+04  0.11242478134E+04  0.50400001928E-02 0. -1.
</event>
<event>
 5   0  0.1269175E-04  0.1700434E+04  0.7818609E-02  0.8761117E-01
       -2   -1    0    0    0  501  0.00000000000E+00  0.00000000000E+00  0.59006724165E+03  0.59006724166E+03  0.25500000920E-02 0. -1.
        2   -1    0    0  501    0  0.00000000000E+00  0.00000000000E+00 -0.12250614987E+04  0.12250614987E+04  0.25500000920E-02 0.  1.
    10030    2    1    2    0    0  0.00000000000E+00  0.00000000000E+00 -0.63499425706E+03  0.18151287404E+04  0.17004336616E+04 0.  0.
        2    1    3    3  502    0 -0.43850032039E+03 -0.27134603162E+03  0.40408476226E+03  0.65513028854E+03  0.25500000920E-02 0. -1.
       -2    1    3    3    0  502  0.43850032039E+03  0.27134603162E+03 -0.10390790193E+04  0.11599984518E+04  0.25500000920E-02 0.  1.
</event>
<event>
 5   0  0.6539134E-05  0.1697369E+04  0.7818609E-02  0.8762866E-01
       -1   -1    0    0    0  501  0.00000000000E+00  0.00000000000E+00  0.57223712814E+03  0.57223712817E+03  0.50400001928E-02 0. -1.
        1   -1    0    0  501    0  0.00000000000E+00  0.00000000000E+00 -0.12586832073E+04  0.12586832073E+04  0.50400001928E-02 0.  1.
    10030    2    1    2    0    0  0.00000000000E+00  0.00000000000E+00 -0.68644607917E+03  0.18309203355E+04  0.16973688625E+04 0.  0.
        2    1    3    3  502    0  0.68201706446E+03  0.43078422148E+03 -0.58763994723E+02  0.80881118240E+03  0.25500000920E-02 0.  1.
       -2    1    3    3    0  502 -0.68201706446E+03 -0.43078422148E+03 -0.62768208445E+03  0.10221091531E+04  0.25500000920E-02 0. -1.
</event>
<event>
 5   0  0.6564887E-05  0.1697362E+04  0.7818609E-02  0.8762870E-01
        1   -1    0    0  501    0  0.00000000000E+00  0.00000000000E+00  0.13751904864E+04  0.13751904864E+04  0.50400001928E-02 0.  1.
       -1   -1    0    0    0  501  0.00000000000E+00  0.00000000000E+00 -0.52375232099E+03  0.52375232101E+03  0.50400001928E-02 0. -1.
    10030    2    1    2    0    0  0.00000000000E+00  0.00000000000E+00  0.85143816538E+03  0.18989428074E+04  0.16973617282E+04 0.  0.
        4    1    3    3  502    0  0.10027170416E+03  0.35043662683E+03 -0.43172038773E+03  0.56501712378E+03  0.12699999809E+01 0. -1.
       -4    1    3    3    0  502 -0.10027170416E+03 -0.35043662683E+03  0.12831585531E+04  0.13339256836E+04  0.12699999809E+01 0.  1.
</event>
<event>
 5   0  0.1333546E-04  0.1701842E+04  0.7818609E-02  0.8760315E-01
       -2   -1    0    0    0  501  0.00000000000E+00  0.00000000000E+00  0.41004627153E+03  0.41004627154E+03  0.25500000920E-02 0.  1.
        2   -1    0    0  501    0  0.00000000000E+00  0.00000000000E+00 -0.17658160568E+04  0.17658160568E+04  0.25500000920E-02 0. -1.
    10030    2    1    2    0    0  0.00000000000E+00  0.00000000000E+00 -0.13557697853E+04  0.21758623284E+04  0.17018416969E+04 0.  0.
        5    1    3    3  502    0 -0.78230212480E+03 -0.31853583805E+03 -0.54636043811E+03  0.10059788829E+04  0.46999998093E+01 0. -1.
       -5    1    3    3    0  502  0.78230212480E+03  0.31853583805E+03 -0.80940934719E+03  0.11698834454E+04  0.46999998093E+01 0.  1.
</event>
<event>
 5   0  0.6539134E-05  0.1673548E+04  0.7818609E-02  0.8776596E-01
       -1   -1    0    0    0  501  0.00000000000E+00  0.00000000000E+00  0.62911632324E+03  0.62911632326E+03  0.50400001928E-02 0. -1.
        1   -1    0    0  501    0  0.00000000000E+00  0.00000000000E+00 -0.11129747231E+04  0.11129747231E+04  0.50400001928E-02 0.  1.
    10030    2    1    2    0    0  0.00000000000E+00  0.00000000000E+00 -0.48385839985E+03  0.17420910464E+04  0.16735478071E+04 0.  0.
        2    1    3    3  502    0  0.46041188812E+03  0.69456253870E+03 -0.32116741193E+03  0.89305360051E+03  0.25500000920E-02 0.  1.
       -2    1    3    3    0  502 -0.46041188812E+03 -0.69456253870E+03 -0.16269098792E+03  0.84903744585E+03  0.25500000920E-02 0. -1.
</event>
<event>
 5   0  0.6834837E-05  0.1653187E+04  0.7818609E-02  0.8788523E-01
       -1   -1    0    0    0  501  0.00000000000E+00  0.00000000000E+00  0.47987150282E+03  0.47987150285E+03  0.50400001928E-02 0. -1.
        1   -1    0    0  501    0  0.00000000000E+00  0.00000000000E+00 -0.14238330987E+04  0.14238330987E+04  0.50400001928E-02 0.  1.
    10030    2    1    2    0    0  0.00000000000E+00  0.00000000000E+00 -0.94396159584E+03  0.19037046015E+04  0.16531871387E+04 0.  0.
        5    1    3    3  502    0  0.41695714207E+02  0.13451650404E+03 -0.14099008144E+04  0.14169247048E+04  0.46999998093E+01 0.  1.
       -5    1    3    3    0  502 -0.41695714207E+02 -0.13451650404E+03  0.46593921860E+03  0.48677989674E+03  0.46999998093E+01 0. -1.
</event>
<event>
 5   0  0.6564887E-05  0.1701344E+04  0.7818609E-02  0.8760598E-01
        1   -1    0    0  501    0  0.00000000000E+00  0.00000000000E+00  0.79943722571E+03  0.79943722572E+03  0.50400001928E-02 0. -1.
       -1   -1    0    0    0  501  0.00000000000E+00  0.00000000000E+00 -0.90519058582E+03  0.90519058583E+03  0.50400001928E-02 0.  1.
    10030    2    1    2    0    0  0.00000000000E+00  0.00000000000E+00 -0.10575336011E+03  0.17046278116E+04  0.17013442341E+04 0.  0.
        4    1    3    3  502    0 -0.30963576541E+03 -0.41341358553E+03 -0.73009266923E+03  0.89432769077E+03  0.12699999809E+01 0.  1.
       -4    1    3    3    0  502  0.30963576541E+03  0.41341358553E+03  0.62433930912E+03  0.81030012078E+03  0.12699999809E+01 0. -1.
</event>
<event>
 5   0  0.6615842E-05  0.1705252E+04  0.7818609E-02  0.8758375E-01
        1   -1    0    0  501    0  0.00000000000E+00  0.00000000000E+00  0.15054069681E+04  0.15054069681E+04  0.50400001928E-02 0. -1.
       -1   -1    0    0    0  501  0.00000000000E+00  0.00000000000E+00 -0.48290668182E+03  0.48290668184E+03  0.50400001928E-02 0.  1.
    10030    2    1    2    0    0  0.00000000000E+00  0.00000000000E+00  0.10225002863E+04  0.19883136499E+04  0.17052519858E+04 0.  0.
        3    1    3    3  502    0 -0.14431056163E+03 -0.12797264494E+03  0.14796350691E+04  0.14921536395E+04  0.10100000352E+00 0. -1.
       -3    1    3    3    0  502  0.14431056163E+03  0.12797264494E+03 -0.45713478283E+03  0.49616001041E+03  0.10100000352E+00 0.  1.
</event>
<event>
 5   0  0.6834837E-05  0.1710413E+04  0.7818609E-02  0.8755448E-01
       -1   -1    0    0    0  501  0.00000000000E+00  0.00000000000E+00  0.52701478031E+03  0.52701478033E+03  0.50400001928E-02 0. -1.
        1   -1    0    0  501    0  0.00000000000E+00  0.00000000000E+00 -0.13877753011E+04  0.13877753011E+04  0.50400001928E-02 0.  1.
    10030    2    1    2    0    0  0.00000000000E+00  0.00000000000E+00 -0.86076052077E+03  0.19147900814E+04  0.17104129273E+04 0.  0.
        5    1    3    3  502    0 -0.71277762960E+03  0.14000439787E+03  0.74884168600E+02  0.73026221960E+03  0.46999998093E+01 0. -1.
       -5    1    3    3    0  502  0.71277762960E+03 -0.14000439787E+03 -0.93564468937E+03  0.11845278618E+04  0.46999998093E+01 0.  1.
</event>
<event>
 5   0  0.6601906E-05  0.1699381E+04  0.7818609E-02  0.8761717E-01
       -1   -1    0    0    0  501  0.00000000000E+00  0.00000000000E+00  0.83271180720E+03  0.83271180722E+03  0.50400001928E-02 0.  1.
        1   -1    0    0  501    0  0.00000000000E+00  0.00000000000E+00 -0.86701571012E+03  0.86701571013E+03  0.50400001928E-02 0. -1.
    10030    2    1    2    0    0  0.00000000000E+00  0.00000000000E+00 -0.34303902911E+02  0.16997275173E+04  0.16993813214E+04 0.  0.
        1    1    3    3  502    0 -0.53973119565E+03 -0.40682067348E+03  0.49789119495E+03  0.83946915724E+03  0.50400001928E-02 0.  1.
       -1    1    3    3    0  502  0.53973119565E+03  0.40682067348E+03 -0.53219509786E+03  0.86025836011E+03  0.50400001928E-02 0. -1.
</event>
<event>
 5   0  0.4720875E-05  0.1700283E+04  0.7818609E-02  0.8761203E-01
       -3   -1    0    0    0  501  0.00000000000E+00  0.00000000000E+00  0.16825107941E+04  0.16825107971E+04  0.10100000352E+00 0. -1.
        3   -1    0    0  501    0  0.00000000000E+00  0.00000000000E+00 -0.42956078514E+03  0.42956079701E+03  0.10100000352E+00 0.  1.
    10030    2    1    2    0    0  0.00000000000E+00  0.00000000000E+00  0.12529500089E+04  0.21120715941E+04  0.17002831217E+04 0.  0.
        5    1    3    3  502    0  0.65255041345E+03  0.38348327271E+03  0.11073111440E+04  0.13412835354E+04  0.46999998093E+01 0. -1.
       -5    1    3    3    0  502 -0.65255041345E+03 -0.38348327271E+03  0.14563886489E+03  0.77078805874E+03  0.46999998093E+01 0.  1.
</event>
<event>
 5   0  0.1255362E-04  0.1700151E+04  0.7818609E-02  0.8761278E-01
        2   -1    0    0  501    0  0.00000000000E+00  0.00000000000E+00  0.17051160752E+04  0.17051160752E+04  0.25500000920E-02 0.  1.
       -2   -1    0    0    0  501  0.00000000000E+00  0.00000000000E+00 -0.42380005636E+03  0.42380005636E+03  0.25500000920E-02 0. -1.
    10030    2    1    2    0    0  0.00000000000E+00  0.00000000000E+00  0.12813160189E+04  0.21289161316E+04  0.17001509213E+04 0.  0.
        1    1    3    3  502    0 -0.51824961460E+03 -0.22621005918E+03 -0.15413866287E+03  0.58609929306E+03  0.50400001928E-02 0. -1.
       -1    1    3    3    0  502  0.51824961460E+03  0.22621005918E+03  0.14354546818E+04  0.15428168386E+04  0.50400001928E-02 0.  1.
</event>
<event>
 5   0  0.6601906E-05  0.1729473E+04  0.7818609E-02  0.8744731E-01
       -1   -1    0    0    0  501  0.00000000000E+00  0.00000000000E+00  0.47902310889E+03  0.47902310891E+03  0.50400001928E-02 0. -1.
        1   -1    0    0  501    0  0.00000000000E+00  0.00000000000E+00 -0.15610292832E+04  0.15610292832E+04  0.50400001928E-02 0.  1.
    10030    2    1    2    0    0  0.00000000000E+00  0.00000000000E+00 -0.10820061743E+04  0.20400523922E+04  0.17294728681E+04 0.  0.
        1    1    3    3  502    0  0.30106254898E+02 -0.80469000180E+03 -0.16922613368E+03  0.82284255476E+03  0.50400001928E-02 0.  1.
       -1    1    3    3    0  502 -0.30106254898E+02  0.80469000180E+03 -0.91278004067E+03  0.12172098374E+04  0.50400001928E-02 0. -1.
</event>
<event>
 5   0  0.1285639E-04  0.1692765E+04  0.7818609E-02  0.8765501E-01
        2   -1    0    0  501    0  0.00000000000E+00  0.00000000000E+00  0.86606606343E+03  0.86606606343E+03  0.25500000920E-02 0. -1.
       -2   -1    0    0    0  501  0.00000000000E+00  0.00000000000E+00 -0.82714674961E+03  0.82714674962E+03  0.25500000920E-02 0.  1.
    10030    2    1    2    0    0  0.00000000000E+00  0.00000000000E+00  0.38919313811E+02  0.16932128130E+04  0.16927654643E+04 0.  0.
        4    1    3    3  502    0 -0.43609227105E+03  0.72475156452E+03  0.49812647460E+02  0.84730408466E+03  0.12699999809E+01 0.  1.
       -4    1    3    3    0  502  0.43609227105E+03 -0.72475156452E+03 -0.10893333649E+02  0.84590872838E+03  0.12699999809E+01 0. -1.
</event>
<event>
 5   0  0.1333546E-04  0.1689489E+04  0.7818609E-02  0.8767382E-01
        2   -1    0    0  501    0  0.00000000000E+00  0.00000000000E+00  0.79805303238E+03  0.79805303238E+03  0.25500000920E-02 0. -1.
       -2   -1    0    0    0  501  0.00000000000E+00  0.00000000000E+00 -0.89416807837E+03  0.89416807838E+03  0.25500000920E-02 0.  1.
    10030    2    1    2    0    0  0.00000000000E+00  0.00000000000E+00 -0.96115045998E+02  0.16922211108E+04  0.16894893269E+04 0.  0.
        5    1    3    3  502    0  0.35048980894E+03 -0.71845459886E+03  0.22542487668E+03  0.83057725819E+03  0.46999998093E+01 0. -1.
       -5    1    3    3    0  502 -0.35048980894E+03  0.71845459886E+03 -0.32153992268E+03  0.86164385257E+03  0.46999998093E+01 0.  1.
</event>
<event>
 5   0  0.6539134E-05  0.1675410E+04  0.7818609E-02  0.8775514E-01
        1   -1    0    0  501    0  0.00000000000E+00  0.00000000000E+00  0.97603822872E+03  0.97603822874E+03  0.50400001928E-02 0.  1.
       -1   -1    0    0    0  501  0.00000000000E+00  0.00000000000E+00 -0.71897770502E+03  0.71897770503E+03  0.50400001928E-02 0. -1.
    10030    2    1    2    0    0  0.00000000000E+00  0.00000000000E+00  0.25706052371E+03  0.16950159338E+04  0.16754100701E+04 0.  0.
        2    1    3    3  502    0  0.34349003893E+03 -0.63459494431E+03  0.55901347098E+03  0.91279362998E+03  0.25500000920E-02 0.  1.
       -2    1    3    3    0  502 -0.34349003893E+03  0.63459494431E+03 -0.30195294727E+03  0.78222230380E+03  0.25500000920E-02 0. -1.
</event>
<event>
 5   0  0.6601906E-05  0.1681298E+04  0.7818609E-02  0.8772103E-01
       -1   -1    0    0    0  501  0.00000000000E+00  0.00000000000E+00  0.61926595163E+03  0.61926595165E+03  0.50400001928E-02 0.  1.
        1   -1    0    0  501    0  0.00000000000E+00  0.00000000000E+00 -0.11411747181E+04  0.11411747182E+04  0.50400001928E-02 0. -1.
    10030    2    1    2    0    0  0.00000000000E+00  0.00000000000E+00 -0.52190876652E+03  0.17604406698E+04  0.16812978889E+04 0.  0.
        1    1    3    3  502    0 -0.48227806783E+03 -0.60209779563E+03  0.88800344577E+02  0.77653035448E+03  0.50400001928E-02 0.  1.
       -1    1    3    3    0  502  0.48227806783E+03  0.60209779563E+03 -0.61070911109E+03  0.98391031532E+03  0.50400001928E-02 0. -1.
</event>
<event>
 5   0  0.1269175E-04  0.1702751E+04  0.7818609E-02  0.8759797E-01
        2   -1    0    0  501    0  0.00000000000E+00  0.00000000000E+00  0.18214091053E+04  0.18214091053E+04  0.25500000920E-02 0. -1.
       -2   -1    0    0    0  501  0.00000000000E+00  0.00000000000E+00 -0.39795568572E+03  0.39795568573E+03  0.25500000920E-02 0.  1.
    10030    2    1    2    0    0  0.00000000000E+00  0.00000000000E+00  0.14234534196E+04  0.22193647911E+04  0.17027508444E+04 0.  0.
        2    1    3    3  502    0  0.40937254872E+03 -0.28252308032E+03 -0.18887897638E+03  0.53205304461E+03  0.25500000920E-02 0.  1.
       -2    1    3    3    0  502 -0.40937254872E+03  0.28252308032E+03  0.16123323960E+04  0.16873117464E+04  0.25500000920E-02 0. -1.
</event>
<event>
 5   0  0.6615842E-05  0.1705972E+04  0.7818609E-02  0.8757966E-01
       -1   -1    0    0    0  501  0.00000000000E+00  0.00000000000E+00  0.44882455917E+03  0.44882455920E+03  0.50400001928E-02 0. -1.
        1   -1    0    0  501    0  0.00000000000E+00  0.00000000000E+00 -0.16210895472E+04  0.16210895472E+04  0.50400001928E-02 0.  1.
    10030    2    1    2    0    0  0.00000000000E+00  0.00000000000E+00 -0.11722649880E+04  0.20699141064E+04  0.17059716310E+04 0.  0.
        3    1    3    3  502    0 -0.57147092935E+03  0.39104420193E+02  0.18074536392E+03  0.60064721389E+03  0.10100000352E+00 0. -1.
       -3    1    3    3    0  502  0.57147092935E+03 -0.39104420193E+02 -0.13530103519E+04  0.14692668925E+04  0.10100000352E+00 0.  1.
</event>
<event>
 5   0  0.6615842E-05  0.1694357E+04  0.7818609E-02  0.8764589E-01
        1   -1    0    0  501    0  0.00000000000E+00  0.00000000000E+00  0.92389452221E+03  0.92389452222E+03  0.50400001928E-02 0.  1.
       -1   -1    0    0    0  501  0.00000000000E+00  0.00000000000E+00 -0.77683266422E+03  0.77683266424E+03  0.50400001928E-02 0. -1.
    10030    2    1    2    0    0  0.00000000000E+00  0.00000000000E+00  0.14706185799E+03  0.17007271865E+04  0.16943570381E+04 0.  0.
        3    1    3    3  502    0  0.52222420032E+03  0.46399117644E+03  0.55460884997E+03  0.89196239488E+03  0.10100000352E+00 0.  1.
       -3    1    3    3    0  502 -0.52222420032E+03 -0.46399117644E+03 -0.40754699199E+03  0.80876479158E+03  0.10100000352E+00 0. -1.
</event>
<event>
 5   0  0.1269175E-04  0.1700896E+04  0.7818609E-02  0.8760854E-01
       -2   -1    0    0    0  501  0.00000000000E+00  0.00000000000E+00  0.69949880468E+03  0.69949880468E+03  0.25500000920E-02 0.  1.
        2   -1    0    0  501    0  0.00000000000E+00  0.00000000000E+00 -0.10339711133E+04  0.10339711133E+04  0.25500000920E-02 0. -1.
    10030    2    1    2    0    0  0.00000000000E+00  0.00000000000E+00 -0.33447230866E+03  0.17334699180E+04  0.17008957144E+04 0.  0.
        2    1    3    3  502    0  0.51100872333E+03 -0.18160680366E+03 -0.83487790977E+03  0.99555616149E+03  0.25500000920E-02 0. -1.
       -2    1    3    3    0  502 -0.51100872333E+03  0.18160680366E+03  0.50040560111E+03  0.73791375653E+03  0.25500000920E-02 0.  1.
</event>
<event>
 5   0  0.6834837E-05  0.1697761E+04  0.7818609E-02  0.8762642E-01
       -1   -1    0    0    0  501  0.00000000000E+00  0.00000000000E+00  0.44858310878E+03  0.44858310881E+03  0.50400001928E-02 0. -1.
        1   -1    0    0  501    0  0.00000000000E+00  0.00000000000E+00 -0.16063869548E+04  0.16063869548E+04  0.50400001928E-02 0.  1.
    10030    2    1    2    0    0  0.00000000000E+00  0.00000000000E+00 -0.11578038460E+04  0.20549700636E+04  0.16977609421E+04 0.  0.
        5    1    3    3  502    0  0.70419301829E+03 -0.94936067628E-01 -0.51567513814E+01  0.70422758971E+03  0.46999998093E+01 0. -1.
       -5    1    3    3    0  502 -0.70419301829E+03  0.94936067628E-01 -0.11526470946E+04  0.13507424739E+04  0.46999998093E+01 0.  1.
</event>
<event>
 5   0  0.1393870E-04  0.1698299E+04  0.7818609E-02  0.8762335E-01
        2   -1    0    0  501    0  0.00000000000E+00  0.00000000000E+00  0.69663249960E+03  0.69663249960E+03  0.25500000920E-02 0.  1.
       -2   -1    0    0    0  501  0.00000000000E+00  0.00000000000E+00 -0.10350576516E+04  0.10350576516E+04  0.25500000920E-02 0. -1.
    10030    2    1    2    0    0  0.00000000000E+00  0.00000000000E+00 -0.33842515199E+03  0.17316901512E+04  0.16982989125E+04 0.  0.
        3    1    3    3  502    0  0.41433778166E+03  0.34966985537E+02 -0.92414531712E+03  0.10133819935E+04  0.10100000352E+00 0. -1.
       -3    1    3    3    0  502 -0.41433778166E+03 -0.34966985537E+02  0.58572016512E+03  0.71830815770E+03  0.10100000352E+00 0.  1.
</event>
<event>
 5   0  0.1393870E-04  0.1709941E+04  0.7818609E-02  0.8755715E-01
        2   -1    0    0  501    0  0.00000000000E+00  0.00000000000E+00  0.10409949571E+04  0.10409949571E+04  0.25500000920E-02 0. -1.
       -2   -1    0    0    0  501  0.00000000000E+00  0.00000000000E+00 -0.70218823830E+03  0.70218823830E+03  0.25500000920E-02 0.  1.
    10030    2    1    2    0    0  0.00000000000E+00  0.00000000000E+00  0.33880671882E+03  0.17431831954E+04  0.17099408353E+04 0.  0.
        3    1    3    3  502    0 -0.67107448828E+03  0.51533094473E+03  0.44267472746E+02  0.84727006955E+03  0.10100000352E+00 0.  1.
       -3    1    3    3    0  502  0.67107448828E+03 -0.51533094473E+03  0.29453924608E+03  0.89591312587E+03  0.10100000352E+00 0. -1.
</event>
<event>
 5   0  0.1269175E-04  0.1700062E+04  0.7818609E-02  0.8761329E-01
        2   -1    0    0  501    0  0.00000000000E+00  0.00000000000E+00  0.95830286802E+03  0.95830286802E+03  0.25500000920E-02 0.  1.
       -2   -1    0    0    0  501  0.00000000000E+00  0.00000000000E+00 -0.75399187816E+03  0.75399187817E+03  0.25500000920E-02 0. -1.
    10030    2    1    2    0    0  0.00000000000E+00  0.00000000000E+00  0.20431098986E+03  0.17122947462E+04  0.17000618569E+04 0.  0.
        2    1    3    3  502    0 -0.35583762321E+03  0.30462422057E+03 -0.61226944121E+03  0.77090219775E+03  0.25500000920E-02 0. -1.
       -2    1    3    3    0  502  0.35583762321E+03 -0.30462422057E+03  0.81658043107E+03  0.94139254844E+03  0.25500000920E-02 0.  1.
</event>
<event>
 5   0  0.6564887E-05  0.1704810E+04  0.7818609E-02  0.8758626E-01
       -1   -1    0    0    0  501  0.00000000000E+00  0.00000000000E+00  0.41813492475E+03  0.41813492478E+03  0.50400001928E-02 0. -1.
        1   -1    0    0  501    0  0.00000000000E+00  0.00000000000E+00 -0.17377028698E+04  0.17377028698E+04  0.50400001928E-02 0.  1.
    10030    2    1    2    0    0  0.00000000000E+00  0.00000000000E+00 -0.13195679450E+04  0.21558377946E+04  0.17048099703E+04 0.  0.
        4    1    3    3  502    0  0.49836637434E+03 -0.47445185977E+03 -0.23571017516E+02  0.68849895866E+03  0.12699999809E+01 0.  1.
       -4    1    3    3    0  502 -0.49836637434E+03  0.47445185977E+03 -0.12959969275E+04  0.14673388359E+04  0.12699999809E+01 0. -1.
</event>
<event>
 5   0  0.1255362E-04  0.1707295E+04  0.7818609E-02  0.8757215E-01
       -2   -1    0    0    0  501  0.00000000000E+00  0.00000000000E+00  0.52325066269E+03  0.52325066270E+03  0.25500000920E-02 0.  1.
        2   -1    0    0  501    0  0.00000000000E+00  0.00000000000E+00 -0.13926673574E+04  0.13926673574E+04  0.25500000920E-02 0. -1.
    10030    2    1    2    0    0  0.00000000000E+00  0.00000000000E+00 -0.86941669473E+03  0.19159180201E+04  0.17072950743E+04 0.  0.
        1    1    3    3  502    0 -0.41323601280E+03  0.31886745687E+03 -0.11927289927E+04  0.13019381350E+04  0.50400001928E-02 0. -1.
       -1    1    3    3    0  502  0.41323601280E+03 -0.31886745687E+03  0.32331229795E+03  0.61397988514E+03  0.50400001928E-02 0.  1.
</event>
<event>
 5   0  0.1269175E-04  0.1729138E+04  0.7818609E-02  0.8744918E-01
        2   -1    0    0  501    0  0.00000000000E+00  0.00000000000E+00  0.16841423579E+04  0.16841423579E+04  0.25500000920E-02 0. -1.
       -2   -1    0    0    0  501  0.00000000000E+00  0.00000000000E+00 -0.44383420344E+03  0.44383420345E+03  0.25500000920E-02 0.  1.
    10030    2    1    2    0    0  0.00000000000E+00  0.00000000000E+00  0.12403081545E+04  0.21279765614E+04  0.17291384929E+04 0.  0.
        2    1    3    3  502    0 -0.26643621796E+03  0.42602723342E+03  0.14859915531E+04  0.15686485769E+04  0.25500000920E-02 0. -1.
       -2    1    3    3    0  502  0.26643621796E+03 -0.42602723342E+03 -0.24568339864E+03  0.55932798448E+03  0.25500000920E-02 0.  1.
</event>
<event>
 5   0  0.1255362E-04  0.1699896E+04  0.7818609E-02  0.8761424E-01
        2   -1    0    0  501    0  0.00000000000E+00  0.00000000000E+00  0.11043313288E+04  0.11043313288E+04  0.25500000920E-02 0.  1.
       -2   -1    0    0    0  501  0.00000000000E+00  0.00000000000E+00 -0.65416188707E+03  0.65416188708E+03  0.25500000920E-02 0. -1.
    10030    2    1    2    0    0  0.00000000000E+00  0.00000000000E+00  0.45016944175E+03  0.17584932159E+04  0.16998958392E+04 0.  0.
        1    1    3    3  502    0 -0.82883721898E+03 -0.14166035833E+03  0.35334526712E+03  0.91208095612E+03  0.50400001928E-02 0. -1.
       -1    1    3    3    0  502  0.82883721898E+03  0.14166035833E+03  0.96824174631E+02  0.84641225978E+03  0.50400001928E-02 0.  1.
</event>
<event>
 5   0  0.1393870E-04  0.1697822E+04  0.7818609E-02  0.8762608E-01
       -2   -1    0    0    0  501  0.00000000000E+00  0.00000000000E+00  0.11077181499E+04  0.11077181499E+04  0.25500000920E-02 0.  1.
        2   -1    0    0  501    0  0.00000000000E+00  0.00000000000E+00 -0.65057137167E+03  0.65057137168E+03  0.25500000920E-02 0. -1.
    10030    2    1    2    0    0  0.00000000000E+00  0.00000000000E+00  0.45714677823E+03  0.17582895216E+04  0.16978218001E+04 0.  0.
        3    1    3    3  502    0 -0.38897025206E+03  0.11951796292E+03  0.10001358792E+04  0.10797472794E+04  0.10100000352E+00 0.  1.
       -3    1    3    3    0  502  0.38897025206E+03 -0.11951796292E+03 -0.54298910093E+03  0.67854224215E+03  0.10100000352E+00 0. -1.
</event>
<event>
 5   0  0.6539134E-05  0.1706983E+04  0.7818609E-02  0.8757392E-01
        1   -1    0    0  501    0  0.00000000000E+00  0.00000000000E+00  0.67908340731E+03  0.67908340733E+03  0.50400001928E-02 0.  1.
       -1   -1    0    0    0  501  0.00000000000E+00  0.00000000000E+00 -0.10726929768E+04  0.10726929768E+04  0.50400001928E-02 0. -1.
    10030    2    1    2    0    0  0.00000000000E+00  0.00000000000E+00 -0.39360956945E+03  0.17517763841E+04  0.17069833059E+04 0.  0.
        2    1    3    3  502    0 -0.66381275382E+03 -0.48338861138E+03 -0.43558195209E+03  0.92953943367E+03  0.25500000920E-02 0. -1.
       -2    1    3    3    0  502  0.66381275382E+03  0.48338861138E+03  0.41972382643E+02  0.82223695044E+03  0.25500000920E-02 0.  1.
</event>
<event>
 5   0  0.1255362E-04  0.1703904E+04  0.7818609E-02  0.8759141E-01
        2   -1    0    0  501    0  0.00000000000E+00  0.00000000000E+00  0.15156329828E+04  0.15156329828E+04  0.25500000920E-02 0. -1.
       -2   -1    0    0    0  501  0.00000000000E+00  0.00000000000E+00 -0.47889021006E+03  0.47889021007E+03  0.25500000920E-02 0.  1.
    10030    2    1    2    0    0  0.00000000000E+00  0.00000000000E+00  0.10367427727E+04  0.19945231929E+04  0.17039035155E+04 0.  0.
        1    1    3    3  502    0  0.26021252830E+03  0.67449049983E+03 -0.92567502816E+01  0.72300323768E+03  0.50400001928E-02 0.  1.
       -1    1    3    3    0  502 -0.26021252830E+03 -0.67449049983E+03  0.10459995230E+04  0.12715199552E+04  0.50400001928E-02 0. -1.
</event>
<event>
 5   0  0.1285639E-04  0.1740069E+04  0.7818609E-02  0.8738836E-01
       -2   -1    0    0    0  501  0.00000000000E+00  0.00000000000E+00  0.78996897135E+03  0.78996897135E+03  0.25500000920E-02 0. -1.
        2   -1    0    0  501    0  0.00000000000E+00  0.00000000000E+00 -0.95821445299E+03  0.95821445299E+03  0.25500000920E-02 0.  1.
    10030    2    1    2    0    0  0.00000000000E+00  0.00000000000E+00 -0.16824548164E+03  0.17481834243E+04  0.17400686030E+04 0.  0.
        4    1    3    3  502    0 -0.83398120276E+01 -0.48224731712E+03  0.64335773634E+03  0.80407886252E+03  0.12699999809E+01 0. -1.
       -4    1    3    3    0  502  0.83398120276E+01  0.48224731712E+03 -0.81160321798E+03  0.94410456183E+03  0.12699999809E+01 0.  1.
</event>
<event>
 5   0  0.6601906E-05  0.1703831E+04  0.7818609E-02  0.8759182E-01
       -1   -1    0    0    0  501  0.00000000000E+00  0.00000000000E+00  0.55734647989E+03  0.55734647991E+03  0.50400001928E-02 0.  1.
        1   -1    0    0  501    0  0.00000000000E+00  0.00000000000E+00 -0.13021705234E+04  0.13021705234E+04  0.50400001928E-02 0. -1.
    10030    2    1    2    0    0  0.00000000000E+00  0.00000000000E+00 -0.74482404348E+03  0.18595170033E+04  0.17038311623E+04 0.  0.
        1    1    3    3  502    0  0.16762698063E+03  0.18910512915E+03 -0.12603241438E+04  0.12854090796E+04  0.50400001928E-02 0. -1.
       -1    1    3    3    0  502 -0.16762698063E+03 -0.18910512915E+03  0.51550010035E+03  0.57410792364E+03  0.50400001928E-02 0.  1.
</event>
<event>
 5   0  0.6539134E-05  0.1707139E+04  0.7818609E-02  0.8757303E-01
       -1   -1    0    0    0  501  0.00000000000E+00  0.00000000000E+00  0.56118217163E+03  0.56118217165E+03  0.50400001928E-02 0.  1.
        1   -1    0    0  501    0  0.00000000000E+00  0.00000000000E+00 -0.12982971634E+04  0.12982971634E+04  0.50400001928E-02 0. -1.
    10030    2    1    2    0    0  0.00000000000E+00  0.00000000000E+00 -0.73711499176E+03  0.18594793350E+04  0.17071393869E+04 0.  0.
        2    1    3    3  502    0  0.13645425224E+03  0.43111817004E+03  0.41999183255E+03  0.61715134198E+03  0.25500000920E-02 0.  1.
       -2    1    3    3    0  502 -0.13645425224E+03 -0.43111817004E+03 -0.11571068243E+04  0.12423279931E+04  0.25500000920E-02 0. -1.
</event>
<event>
 5   0  0.6834837E-05  0.1711537E+04  0.7818609E-02  0.8754811E-01
        1   -1    0    0  501    0  0.00000000000E+00  0.00000000000E+00  0.11771738399E+04  0.11771738399E+04  0.50400001928E-02 0. -1.
       -1   -1    0    0    0  501  0.00000000000E+00  0.00000000000E+00 -0.62211705419E+03  0.62211705421E+03  0.50400001928E-02 0.  1.
    10030    2    1    2    0    0  0.00000000000E+00  0.00000000000E+00  0.55505678573E+03  0.17992908941E+04  0.17115372290E+04 0.  0.
        5    1    3    3  502    0  0.72338382582E+03  0.15622435995E+03 -0.17418541818E+03  0.76029787584E+03  0.46999998093E+01 0.  1.
       -5    1    3    3    0  502 -0.72338382582E+03 -0.15622435995E+03  0.72924220391E+03  0.10389930183E+04  0.46999998093E+01 0. -1.
</event>
<event>
 5   0  0.4720875E-05  0.1697710E+04  0.7818609E-02  0.8762671E-01
       -3   -1    0    0    0  501  0.00000000000E+00  0.00000000000E+00  0.12060173023E+04  0.12060173065E+04  0.10100000352E+00 0.  1.
        3   -1    0    0  501    0  0.00000000000E+00  0.00000000000E+00 -0.59746652763E+03  0.59746653616E+03  0.10100000352E+00 0. -1.
    10030    2    1    2    0    0  0.00000000000E+00  0.00000000000E+00  0.60855077463E+03  0.18034838427E+04  0.16977102007E+04 0.  0.
        3    1    3    3  502    0  0.42300758293E+03 -0.59934978288E+03 -0.14941585170E+03  0.74865257923E+03  0.10100000352E+00 0. -1.
       -3    1    3    3    0  502 -0.42300758293E+03  0.59934978288E+03  0.75796662634E+03  0.10548312634E+04  0.10100000352E+00 0.  1.
</event>
<event>
 5   0  0.6615842E-05  0.1637378E+04  0.7818609E-02  0.8797909E-01
       -1   -1    0    0    0  501  0.00000000000E+00  0.00000000000E+00  0.15994187415E+04  0.15994187415E+04  0.50400001928E-02 0.  1.
        1   -1    0    0  501    0  0.00000000000E+00  0.00000000000E+00 -0.41905968648E+03  0.41905968651E+03  0.50400001928E-02 0. -1.
    10030    2    1    2    0    0  0.00000000000E+00  0.00000000000E+00  0.11803590550E+04  0.20184784280E+04  0.16373782903E+04 0.  0.
        3    1    3    3  502    0 -0.20050250902E+02 -0.75105362535E+03  0.99109511324E+03  0.12436852875E+04  0.10100000352E+00 0.  1.
       -3    1    3    3    0  502  0.20050250902E+02  0.75105362535E+03  0.18926394180E+03  0.77479314051E+03  0.10100000352E+00 0. -1.
</event>
<event>
 5   0  0.1285639E-04  0.1699379E+04  0.7818609E-02  0.8761718E-01
       -2   -1    0    0    0  501  0.00000000000E+00  0.00000000000E+00  0.45725278754E+03  0.45725278755E+03  0.25500000920E-02 0.  1.
        2   -1    0    0  501    0  0.00000000000E+00  0.00000000000E+00 -0.15789352150E+04  0.15789352150E+04  0.25500000920E-02 0. -1.
    10030    2    1    2    0    0  0.00000000000E+00  0.00000000000E+00 -0.11216824275E+04  0.20361880026E+04  0.16993793319E+04 0.  0.
        4    1    3    3  502    0  0.68253509694E+03  0.49744181731E+03 -0.67239823205E+03  0.10795478292E+04  0.12699999809E+01 0.  1.
       -4    1    3    3    0  502 -0.68253509694E+03 -0.49744181731E+03 -0.44928419545E+03  0.95664017340E+03  0.12699999809E+01 0. -1.
</event>
<event>
 5   0  0.6601906E-05  0.1699496E+04  0.7818609E-02  0.8761652E-01
        1   -1    0    0  501    0  0.00000000000E+00  0.00000000000E+00  0.15682672832E+04  0.15682672832E+04  0.50400001928E-02 0.  1.
       -1   -1    0    0    0  501  0.00000000000E+00  0.00000000000E+00 -0.46042621629E+03  0.46042621632E+03  0.50400001928E-02 0. -1.
    10030    2    1    2    0    0  0.00000000000E+00  0.00000000000E+00  0.11078410669E+04  0.20286934995E+04  0.16994956562E+04 0.  0.
        1    1    3    3  502    0 -0.25347833172E+03  0.41447581253E+03  0.13861208483E+04  0.14687996697E+04  0.50400001928E-02 0.  1.
       -1    1    3    3    0  502  0.25347833172E+03 -0.41447581253E+03 -0.27827978140E+03  0.55989382974E+03  0.50400001928E-02 0. -1.
</event>
<event>
 5   0  0.1333546E-04  0.1716675E+04  0.7818609E-02  0.8751911E-01
       -2   -1    0    0    0  501  0.00000000000E+00  0.00000000000E+00  0.51640079760E+03  0.51640079761E+03  0.25500000920E-02 0.  1.
        2   -1    0    0  501    0  0.00000000000E+00  0.00000000000E+00 -0.14266889686E+04  0.14266889686E+04  0.25500000920E-02 0. -1.
    10030    2    1    2    0    0  0.00000000000E+00  0.00000000000E+00 -0.91028817098E+03  0.19430897662E+04  0.17166750669E+04 0.  0.
        5    1    3    3  502    0 -0.42045538750E+03 -0.68296733500E+03 -0.80124034764E+03  0.11336821857E+04  0.46999998093E+01 0.  1.
       -5    1    3    3    0  502  0.42045538750E+03  0.68296733500E+03 -0.10904782335E+03  0.80940758047E+03  0.46999998093E+01 0. -1.
</event>
<event>
 5   0  0.1333546E-04  0.1708426E+04  0.7818609E-02  0.8756573E-01
       -2   -1    0    0    0  501  0.00000000000E+00  0.00000000000E+00  0.97884478874E+03  0.97884478874E+03  0.25500000920E-02 0.  1.
        2   -1    0    0  501    0  0.00000000000E+00  0.00000000000E+00 -0.74545032853E+03  0.74545032854E+03  0.25500000920E-02 0. -1.
    10030    2    1    2    0    0  0.00000000000E+00  0.00000000000E+00  0.23339446021E+03  0.17242951173E+04  0.17084263746E+04 0.  0.
        5    1    3    3  502    0  0.16678792671E+03 -0.77882511217E+03 -0.19483027919E+03  0.81998030192E+03  0.46999998093E+01 0. -1.
       -5    1    3    3    0  502 -0.16678792671E+03  0.77882511217E+03  0.42822473940E+03  0.90431481536E+03  0.46999998093E+01 0.  1.
</event>
<event>
 5   0  0.1333546E-04  0.1704702E+04  0.7818609E-02  0.8758687E-01
        2   -1    0    0  501    0  0.00000000000E+00  0.00000000000E+00  0.24485612906E+04  0.24485612906E+04  0.25500000920E-02 0.  1.
       -2   -1    0    0    0  501  0.00000000000E+00  0.00000000000E+00 -0.29670578617E+03  0.29670578618E+03  0.25500000920E-02 0. -1.
    10030    2    1    2    0    0  0.00000000000E+00  0.00000000000E+00  0.21518555044E+04  0.27452670768E+04  0.17047020886E+04 0.  0.
        5    1    3    3  502    0  0.34900987185E+03  0.25243573633E+03  0.22603705116E+04  0.23010494630E+04  0.46999998093E+01 0.  1.
       -5    1    3    3    0  502 -0.34900987185E+03 -0.25243573633E+03 -0.10851500713E+03  0.44421761378E+03  0.46999998093E+01 0. -1.
</event>
<event>
 5   0  0.1269175E-04  0.1700120E+04  0.7818609E-02  0.8761296E-01
       -2   -1    0    0    0  501  0.00000000000E+00  0.00000000000E+00  0.40935033992E+03  0.40935033993E+03  0.25500000920E-02 0. -1.
        2   -1    0    0  501    0  0.00000000000E+00  0.00000000000E+00 -0.17652414805E+04  0.17652414805E+04  0.25500000920E-02 0.  1.
    10030    2    1    2    0    0  0.00000000000E+00  0.00000000000E+00 -0.13558911405E+04  0.21745918204E+04  0.17001202311E+04 0.  0.
        2    1    3    3  502    0 -0.49265075394E+03 -0.60375734780E+03 -0.24348233679E+03  0.81640146296E+03  0.25500000920E-02 0. -1.
       -2    1    3    3    0  502  0.49265075394E+03  0.60375734780E+03 -0.11124088038E+04  0.13581903574E+04  0.25500000920E-02 0.  1.
</event>
<event>
 5   0  0.6564887E-05  0.1702384E+04  0.7818609E-02  0.8760006E-01
       -1   -1    0    0    0  501  0.00000000000E+00  0.00000000000E+00  0.12468884244E+04  0.12468884245E+04  0.50400001928E-02 0.  1.
        1   -1    0    0  501    0  0.00000000000E+00  0.00000000000E+00 -0.58106863167E+03  0.58106863169E+03  0.50400001928E-02 0. -1.
    10030    2    1    2    0    0  0.00000000000E+00  0.00000000000E+00  0.66581979277E+03  0.18279570562E+04  0.17023839175E+04 0.  0.
        4    1    3    3  502    0 -0.38385644927E+03  0.58669884962E+02 -0.48041743631E+03  0.61773008269E+03  0.12699999809E+01 0. -1.
       -4    1    3    3    0  502  0.38385644927E+03 -0.58669884962E+02  0.11462372291E+04  0.12102269735E+04  0.12699999809E+01 0.  1.
</event>
<event>
 5   0  0.1255362E-04  0.1683573E+04  0.7818609E-02  0.8770789E-01
        2   -1    0    0  501    0  0.00000000000E+00  0.00000000000E+00  0.22592208366E+04  0.22592208366E+04  0.25500000920E-02 0.  1.
       -2   -1    0    0    0  501  0.00000000000E+00  0.00000000000E+00 -0.31365009200E+03  0.31365009201E+03  0.25500000920E-02 0. -1.
    10030    2    1    2    0    0  0.00000000000E+00  0.00000000000E+00  0.19455707446E+04  0.25728709286E+04  0.16835733702E+04 0.  0.
        1    1    3    3  502    0  0.45440500531E+03 -0.24172579858E+02  0.20550594791E+04  0.21048367359E+04  0.50400001928E-02 0.  1.
       -1    1    3    3    0  502 -0.45440500531E+03  0.24172579858E+02 -0.10948873449E+03  0.46803419263E+03  0.50400001928E-02 0. -1.
</event>
<event>
 5   0  0.1333546E-04  0.1699704E+04  0.7818609E-02  0.8761533E-01
        2   -1    0    0  501    0  0.00000000000E+00  0.00000000000E+00  0.25342559575E+04  0.25342559575E+04  0.25500000920E-02 0. -1.
       -2   -1    0    0    0  501  0.00000000000E+00  0.00000000000E+00 -0.28499410700E+03  0.28499410701E+03  0.25500000920E-02 0.  1.
    10030    2    1    2    0    0  0.00000000000E+00  0.00000000000E+00  0.22492618505E+04  0.28192500645E+04  0.16997035195E+04 0.  0.
        5    1    3    3  502    0  0.16608357241E+03 -0.97617969414E+02  0.24975391243E+04  0.25049624325E+04  0.46999998093E+01 0. -1.
       -5    1    3    3    0  502 -0.16608357241E+03  0.97617969414E+02 -0.24827727376E+03  0.31428763202E+03  0.46999998093E+01 0.  1.
</event>
<event>
 5   0  0.1285639E-04  0.1709521E+04  0.7818609E-02  0.8755953E-01
       -2   -1    0    0    0  501  0.00000000000E+00  0.00000000000E+00  0.65784344166E+03  0.65784344166E+03  0.25500000920E-02 0.  1.
        2   -1    0    0  501    0  0.00000000000E+00  0.00000000000E+00 -0.11106217698E+04  0.11106217698E+04  0.25500000920E-02 0. -1.
    10030    2    1    2    0    0  0.00000000000E+00  0.00000000000E+00 -0.45277832818E+03  0.17684652115E+04  0.17095206901E+04 0.  0.
        4    1    3    3  502    0  0.25252198577E+02 -0.65753078632E+03  0.33797567306E+03  0.73973885728E+03  0.12699999809E+01 0.  1.
       -4    1    3    3    0  502 -0.25252198577E+02  0.65753078632E+03 -0.79075400124E+03  0.10287263542E+04  0.12699999809E+01 0. -1.
</event>
<event>
 5   0  0.1333546E-04  0.1703111E+04  0.7818609E-02  0.8759592E-01
       -2   -1    0    0    0  501  0.00000000000E+00  0.00000000000E+00  0.89161225684E+03  0.89161225684E+03  0.25500000920E-02 0.  1.
        2   -1    0    0  501    0  0.00000000000E+00  0.00000000000E+00 -0.81329853606E+03  0.81329853606E+03  0.25500000920E-02 0. -1.
    10030    2    1    2    0    0  0.00000000000E+00  0.00000000000E+00  0.78313720782E+02  0.17049107929E+04  0.17031112039E+04 0.  0.
        5    1    3    3  502    0 -0.65261663873E+03  0.53463414912E+03 -0.76649008315E+02  0.84713594601E+03  0.46999998093E+01 0.  1.
       -5    1    3    3    0  502  0.65261663873E+03 -0.53463414912E+03  0.15496272910E+03  0.85777484689E+03  0.46999998093E+01 0. -1.
</event>
<event>
 5   0  0.1333546E-04  0.1700801E+04  0.7818609E-02  0.8760907E-01
        2   -1    0    0  501    0  0.00000000000E+00  0.00000000000E+00  0.18566388216E+04  0.18566388216E+04  0.25500000920E-02 0. -1.
       -2   -1    0    0    0  501  0.00000000000E+00  0.00000000000E+00 -0.38951107126E+03  0.38951107127E+03  0.25500000920E-02 0.  1.
    10030    2    1    2    0    0  0.00000000000E+00  0.00000000000E+00  0.14671277503E+04  0.22461498928E+04  0.17008014303E+04 0.  0.
        5    1    3    3  502    0  0.46280852932E+03  0.34706399863E+03 -0.89604226590E+02  0.58540256352E+03  0.46999998093E+01 0.  1.
       -5    1    3    3    0  502 -0.46280852932E+03 -0.34706399863E+03  0.15567319769E+04  0.16607473293E+04  0.46999998093E+01 0. -1.
</event>
<event>
 5   0  0.6564887E-05  0.1685995E+04  0.7818609E-02  0.8769392E-01
        1   -1    0    0  501    0  0.00000000000E+00  0.00000000000E+00  0.18803461201E+04  0.18803461201E+04  0.50400001928E-02 0. -1.
       -1   -1    0    0    0  501  0.00000000000E+00  0.00000000000E+00 -0.37793309553E+03  0.37793309556E+03  0.50400001928E-02 0.  1.
    10030    2    1    2    0    0  0.00000000000E+00  0.00000000000E+00  0.15024130245E+04  0.22582792156E+04  0.16859952905E+04 0.  0.
        4    1    3    3  502    0  0.15161067635E+03  0.82851652920E+03  0.70446083356E+03  0.10980401246E+04  0.12699999809E+01 0. -1.
       -4    1    3    3    0  502 -0.15161067635E+03 -0.82851652920E+03  0.79795219098E+03  0.11602390910E+04  0.12699999809E+01 0.  1.
</event>
<event>
 5   0  0.6615842E-05  0.1702400E+04  0.7818609E-02  0.8759997E-01
        1   -1    0    0  501    0  0.00000000000E+00  0.00000000000E+00  0.12663980467E+04  0.12663980467E+04  0.50400001928E-02 0.  1.
       -1   -1    0    0    0  501  0.00000000000E+00  0.00000000000E+00 -0.57212748466E+03  0.57212748468E+03  0.50400001928E-02 0. -1.
    10030    2    1    2    0    0  0.00000000000E+00  0.00000000000E+00  0.69427056200E+03  0.18385255314E+04  0.17023996347E+04 0.  0.
        3    1    3    3  502    0  0.32290929132E+03 -0.78377909992E+03  0.26375394755E+03  0.88777600945E+03  0.10100000352E+00 0. -1.
       -3    1    3    3    0  502 -0.32290929132E+03  0.78377909992E+03  0.43051661445E+03  0.95074952191E+03  0.10100000352E+00 0.  1.
</event>
<event>
 5   0  0.6834837E-05  0.1699977E+04  0.7818609E-02  0.8761377E-01
        1   -1    0    0  501    0  0.00000000000E+00  0.00000000000E+00  0.65881765538E+03  0.65881765539E+03  0.50400001928E-02 0.  1.
       -1   -1    0    0    0  501  0.00000000000E+00  0.00000000000E+00 -0.10966321740E+04  0.10966321740E+04  0.50400001928E-02 0. -1.
    10030    2    1    2    0    0  0.00000000000E+00  0.00000000000E+00 -0.43781451858E+03  0.17554498294E+04  0.16999772206E+04 0.  0.
        5    1    3    3  502    0  0.21576880246E+03 -0.71714268577E+03 -0.63403116309E+03  0.98125807698E+03  0.46999998093E+01 0. -1.
       -5    1    3    3    0  502 -0.21576880246E+03  0.71714268577E+03  0.19621664451E+03  0.77419175238E+03  0.46999998093E+01 0.  1.
</event>
<event>
 5   0  0.1255362E-04  0.1692786E+04  0.7818609E-02  0.8765489E-01
       -2   -1    0    0    0  501  0.00000000000E+00  0.00000000000E+00  0.12162413741E+04  0.12162413741E+04  0.25500000920E-02 0. -1.
        2   -1    0    0  501    0  0.00000000000E+00  0.00000000000E+00 -0.58901229167E+03  0.58901229167E+03  0.25500000920E-02 0.  1.
    10030    2    1    2    0    0  0.00000000000E+00  0.00000000000E+00  0.62722908239E+03  0.18052536657E+04  0.16927860101E+04 0.  0.
        1    1    3    3  502    0  0.37412215828E+02  0.84044119369E+03  0.21448703591E+03  0.86818532730E+03  0.50400001928E-02 0.  1.
       -1    1    3    3    0  502 -0.37412215828E+02 -0.84044119369E+03  0.41274204647E+03  0.93706833843E+03  0.50400001928E-02 0. -1.
</event>
<event>
 5   0  0.1333546E-04  0.1691670E+04  0.7818609E-02  0.8766129E-01
        2   -1    0    0  501    0  0.00000000000E+00  0.00000000000E+00  0.12818947135E+04  0.12818947135E+04  0.25500000920E-02 0.  1.
       -2   -1    0    0    0  501  0.00000000000E+00  0.00000000000E+00 -0.55810921510E+03  0.55810921511E+03  0.25500000920E-02 0. -1.
    10030    2    1    2    0    0  0.00000000000E+00  0.00000000000E+00  0.72378549842E+03  0.18400039286E+04  0.16916704790E+04 0.  0.
        5    1    3    3  502    0 -0.43240999819E+03  0.11992493818E+03  0.11417366400E+04  0.12267620154E+04  0.46999998093E+01 0.  1.
       -5    1    3    3    0  502  0.43240999819E+03 -0.11992493818E+03 -0.41795114161E+03  0.61324191320E+03  0.46999998093E+01 0. -1.
</event>
<event>
 5   0  0.6834837E-05  0.1703224E+04  0.7818609E-02  0.8759528E-01
       -1   -1    0    0    0  501  0.00000000000E+00  0.00000000000E+00  0.45106271301E+03  0.45106271303E+03  0.50400001928E-02 0.  1.
        1   -1    0    0  501    0  0.00000000000E+00  0.00000000000E+00 -0.16078531357E+04  0.16078531357E+04  0.50400001928E-02 0. -1.
    10030    2    1    2    0    0  0.00000000000E+00  0.00000000000E+00 -0.11567904227E+04  0.20589158487E+04  0.17032235291E+04 0.  0.
        5    1    3    3  502    0  0.31998212903E+03 -0.20615536762E+03  0.34248931147E+03  0.51206407506E+03  0.46999998093E+01 0.  1.
       -5    1    3    3    0  502 -0.31998212903E+03  0.20615536762E+03 -0.14992797342E+04  0.15468517737E+04  0.46999998093E+01 0. -1.
</event>
<event>
 5   0  0.6601906E-05  0.1694438E+04  0.7818609E-02  0.8764543E-01
       -1   -1    0    0    0  501  0.00000000000E+00  0.00000000000E+00  0.46447708010E+03  0.46447708012E+03  0.50400001928E-02 0. -1.
        1   -1    0    0  501    0  0.00000000000E+00  0.00000000000E+00 -0.15453517048E+04  0.15453517049E+04  0.50400001928E-02 0.  1.
    10030    2    1    2    0    0  0.00000000000E+00  0.00000000000E+00 -0.10808746247E+04  0.20098287850E+04  0.16944384883E+04 0.  0.
        1    1    3    3  502    0  0.56546370430E+03  0.38871683079E+03 -0.11298515167E+04  0.13218980389E+04  0.50400001928E-02 0.  1.
       -1    1    3    3    0  502 -0.56546370430E+03 -0.38871683079E+03  0.48976891970E+02  0.68793074607E+03  0.50400001928E-02 0. -1.
</event>
<event>
 5   0  0.1285639E-04  0.1696092E+04  0.7818609E-02  0.8763597E-01
        2   -1    0    0  501    0  0.00000000000E+00  0.00000000000E+00  0.77341232196E+03  0.77341232197E+03  0.25500000920E-02 0.  1.
       -2   -1    0    0    0  501  0.00000000000E+00  0.00000000000E+00 -0.92988150795E+03  0.92988150796E+03  0.25500000920E-02 0. -1.
    10030    2    1    2    0    0  0.00000000000E+00  0.00000000000E+00 -0.15646918599E+03  0.17032938299E+04  0.16960917619E+04 0.  0.
        4    1    3    3  502    0  0.38667787839E+03  0.67239852278E+03  0.26606322413E+03  0.82001878467E+03  0.12699999809E+01 0.  1.
       -4    1    3    3    0  502 -0.38667787839E+03 -0.67239852278E+03 -0.42253241012E+03  0.88327504526E+03  0.12699999809E+01 0. -1.
</event>
<event>
 5   0  0.6601906E-05  0.1689015E+04  0.7818609E-02  0.8767654E-01
        1   -1    0    0  501    0  0.00000000000E+00  0.00000000000E+00  0.16797973368E+04  0.16797973368E+04  0.50400001928E-02 0. -1.
       -1   -1    0    0    0  501  0.00000000000E+00  0.00000000000E+00 -0.42457092060E+03  0.42457092063E+03  0.50400001928E-02 0.  1.
    10030    2    1    2    0    0  0.00000000000E+00  0.00000000000E+00  0.12552264162E+04  0.21043682575E+04  0.16890152181E+04 0.  0.
        1    1    3    3  502    0  0.60762901138E+03  0.38743240447E+03  0.11762064453E+04  0.13794123696E+04  0.50400001928E-02 0. -1.
       -1    1    3    3    0  502 -0.60762901138E+03 -0.38743240447E+03  0.79019970957E+02  0.72495588785E+03  0.50400001928E-02 0.  1.
</event>
<event>
 5   0  0.1285639E-04  0.1699561E+04  0.7818609E-02  0.8761615E-01
       -2   -1    0    0    0  501  0.00000000000E+00  0.00000000000E+00  0.99953831427E+03  0.99953831427E+03  0.25500000920E-02 0. -1.
        2   -1    0    0  501    0  0.00000000000E+00  0.00000000000E+00 -0.72246063656E+03  0.72246063656E+03  0.25500000920E-02 0.  1.
    10030    2    1    2    0    0  0.00000000000E+00  0.00000000000E+00  0.27707767771E+03  0.17219989508E+04  0.16995612220E+04 0.  0.
        4    1    3    3  502    0  0.24953995640E+03  0.19664967453E+03 -0.66001879520E+03  0.73250782061E+03  0.12699999809E+01 0.  1.
       -4    1    3    3    0  502 -0.24953995640E+03 -0.19664967453E+03  0.93709647291E+03  0.98949113022E+03  0.12699999809E+01 0. -1.
</event>
<event>
 5   0  0.1255362E-04  0.1705640E+04  0.7818609E-02  0.8758154E-01
       -2   -1    0    0    0  501  0.00000000000E+00  0.00000000000E+00  0.93955850035E+03  0.93955850035E+03  0.25500000920E-02 0. -1.
        2   -1    0    0  501    0  0.00000000000E+00  0.00000000000E+00 -0.77408950466E+03  0.77408950467E+03  0.25500000920E-02 0.  1.
    10030    2    1    2    0    0  0.00000000000E+00  0.00000000000E+00  0.16546899569E+03  0.17136480050E+04  0.17056404945E+04 0.  0.
        1    1    3    3  502    0 -0.53716653825E+03  0.66210312563E+03  0.10216268932E+03  0.85869997898E+03  0.50400001928E-02 0.  1.
       -1    1    3    3    0  502  0.53716653825E+03 -0.66210312563E+03  0.63306306363E+02  0.85494802604E+03  0.50400001928E-02 0. -1.
</event>
<event>
 5   0  0.4720875E-05  0.1673821E+04  0.7818609E-02  0.8776438E-01
        4   -1    0    0  501    0  0.00000000000E+00  0.00000000000E+00  0.10626194076E+04  0.10626201666E+04  0.12699999809E+01 0.  1.
       -4   -1    0    0    0  501  0.00000000000E+00  0.00000000000E+00 -0.65914216533E+03  0.65914338882E+03  0.12699999809E+01 0. -1.
    10030    2    1    2    0    0  0.00000000000E+00  0.00000000000E+00  0.40347724230E+03  0.17217635554E+04  0.16738207358E+04 0.  0.
        5    1    3    3  502    0 -0.73714646398E+02  0.14020372316E+03  0.10470463742E+04  0.10589707894E+04  0.46999998093E+01 0.  1.
       -5    1    3    3    0  502  0.73714646398E+02 -0.14020372316E+03 -0.64356913191E+03  0.66279276597E+03  0.46999998093E+01 0. -1.
</event>
<event>
 5   0  0.6601906E-05  0.1695817E+04  0.7818609E-02  0.8763753E-01
       -1   -1    0    0    0  501  0.00000000000E+00  0.00000000000E+00  0.36278434133E+03  0.36278434137E+03  0.50400001928E-02 0. -1.
        1   -1    0    0  501    0  0.00000000000E+00  0.00000000000E+00 -0.19817533567E+04  0.19817533567E+04  0.50400001928E-02 0.  1.
    10030    2    1    2    0    0  0.00000000000E+00  0.00000000000E+00 -0.16189690154E+04  0.23445376981E+04  0.16958173088E+04 0.  0.
        1    1    3    3  502    0 -0.20479569223E+02 -0.12218836985E+03 -0.19691719964E+04  0.19730655747E+04  0.50400001928E-02 0.  1.
       -1    1    3    3    0  502  0.20479569223E+02  0.12218836985E+03  0.35020298106E+03  0.37147212339E+03  0.50400001928E-02 0. -1.
</event>
<event>
 5   0  0.4720875E-05  0.1699880E+04  0.7818609E-02  0.8761433E-01
       -3   -1    0    0    0  501  0.00000000000E+00  0.00000000000E+00  0.43974319170E+03  0.43974320330E+03  0.10100000352E+00 0. -1.
        3   -1    0    0  501    0  0.00000000000E+00  0.00000000000E+00 -0.16427724089E+04  0.16427724120E+04  0.10100000352E+00 0.  1.
    10030    2    1    2    0    0  0.00000000000E+00  0.00000000000E+00 -0.12030292172E+04  0.20825156153E+04  0.16998799930E+04 0.  0.
        1    1    3    3  502    0 -0.21165628931E+03 -0.81280871709E+03 -0.44205626643E+03  0.94914179030E+03  0.50400001928E-02 0.  1.
       -1    1    3    3    0  502  0.21165628931E+03  0.81280871709E+03 -0.76097295079E+03  0.11333738250E+04  0.50400001928E-02 0. -1.
</event>
<event>
 5   0  0.1285639E-04  0.1728465E+04  0.7818609E-02  0.8745294E-01
        2   -1    0    0  501    0  0.00000000000E+00  0.00000000000E+00  0.17460368842E+04  0.17460368842E+04  0.25500000920E-02 0. -1.
       -2   -1    0    0    0  501  0.00000000000E+00  0.00000000000E+00 -0.42776737438E+03  0.42776737438E+03  0.25500000920E-02 0.  1.
    10030    2    1    2    0    0  0.00000000000E+00  0.00000000000E+00  0.13182695099E+04  0.21738042586E+04  0.17284647680E+04 0.  0.
        4    1    3    3  502    0 -0.74097646702E+03  0.34146868913E+03  0.10176180670E+04  0.13042987133E+04  0.12699999809E+01 0. -1.
       -4    1    3    3    0  502  0.74097646702E+03 -0.34146868913E+03  0.30065144285E+03  0.86950554531E+03  0.12699999809E+01 0.  1.
</event>
<event>
 5   0  0.6564887E-05  0.1703376E+04  0.7818609E-02  0.8759441E-01
        1   -1    0    0  501    0  0.00000000000E+00  0.00000000000E+00  0.20979751765E+04  0.20979751765E+04  0.50400001928E-02 0.  1.
       -1   -1    0    0    0  501  0.00000000000E+00  0.00000000000E+00 -0.34574891108E+03  0.34574891112E+03  0.50400001928E-02 0. -1.
    10030    2    1    2    0    0  0.00000000000E+00  0.00000000000E+00  0.17522262654E+04  0.24437240876E+04  0.17033762154E+04 0.  0.
        4    1    3    3  502    0 -0.81334508902E+03 -0.75739929875E+02  0.53029677099E+03  0.97390094416E+03  0.12699999809E+01 0. -1.
       -4    1    3    3    0  502  0.81334508902E+03  0.75739929875E+02  0.12219294944E+04  0.14698231435E+04  0.12699999809E+01 0.  1.
</event>
<event>
 5   0  0.1285639E-04  0.1696719E+04  0.7818609E-02  0.8763238E-01
       -2   -1    0    0    0  501  0.00000000000E+00  0.00000000000E+00  0.60681030109E+03  0.60681030109E+03  0.25500000920E-02 0.  1.
        2   -1    0    0  501    0  0.00000000000E+00  0.00000000000E+00 -0.11860612507E+04  0.11860612507E+04  0.25500000920E-02 0. -1.
    10030    2    1    2    0    0  0.00000000000E+00  0.00000000000E+00 -0.57925094963E+03  0.17928715518E+04  0.16967194048E+04 0.  0.
        4    1    3    3  502    0  0.18757911896E+03 -0.10897490455E+03  0.57700525175E+03  0.61643988282E+03  0.12699999809E+01 0.  1.
       -4    1    3    3    0  502 -0.18757911896E+03  0.10897490455E+03 -0.11562562014E+04  0.11764316690E+04  0.12699999809E+01 0. -1.
</event>
<event>
 5   0  0.6539134E-05  0.1698739E+04  0.7818609E-02  0.8762084E-01
       -1   -1    0    0    0  501  0.00000000000E+00  0.00000000000E+00  0.10922880546E+04  0.10922880547E+04  0.50400001928E-02 0. -1.
        1   -1    0    0  501    0  0.00000000000E+00  0.00000000000E+00 -0.66047452730E+03  0.66047452732E+03  0.50400001928E-02 0.  1.
    10030    2    1    2    0    0  0.00000000000E+00  0.00000000000E+00  0.43181352734E+03  0.17527625820E+04  0.16987388694E+04 0.  0.
        2    1    3    3  502    0  0.84272401368E+03  0.87900055675E+02  0.27710797774E+03  0.89145892466E+03  0.25500000920E-02 0.  1.
       -2    1    3    3    0  502 -0.84272401368E+03 -0.87900055675E+02  0.15470554961E+03  0.86130365732E+03  0.25500000920E-02 0. -1.
</event>
<event>
 5   0  0.1255362E-04  0.1700655E+04  0.7818609E-02  0.8760991E-01
       -2   -1    0    0    0  501  0.00000000000E+00  0.00000000000E+00  0.14714390153E+04  0.14714390153E+04  0.25500000920E-02 0.  1.
        2   -1    0    0  501    0  0.00000000000E+00  0.00000000000E+00 -0.49139425917E+03  0.49139425918E+03  0.25500000920E-02 0. -1.
    10030    2    1    2    0    0  0.00000000000E+00  0.00000000000E+00  0.98004475616E+03  0.19628332745E+04  0.17006547973E+04 0.  0.
        1    1    3    3  502    0 -0.32691371570E+03  0.32288733830E+03  0.13158162045E+04  0.13937363792E+04  0.50400001928E-02 0.  1.
       -1    1    3    3    0  502  0.32691371570E+03 -0.32288733830E+03 -0.33577144829E+03  0.56909689532E+03  0.50400001928E-02 0. -1.
</event>
<event>
 5   0  0.6615842E-05  0.1797935E+04  0.7818609E-02  0.8707398E-01
        1   -1    0    0  501    0  0.00000000000E+00  0.00000000000E+00  0.16566314137E+04  0.16566314137E+04  0.50400001928E-02 0.  1.
       -1   -1    0    0    0  501  0.00000000000E+00  0.00000000000E+00 -0.48782303705E+03  0.48782303708E+03  0.50400001928E-02 0. -1.
    10030    2    1    2    0    0  0.00000000000E+00  0.00000000000E+00  0.11688083766E+04  0.21444544507E+04  0.17979354466E+04 0.  0.
        3    1    3    3  502    0 -0.52090405160E+03  0.55692631358E+03  0.11522183615E+04  0.13817073180E+04  0.10100000352E+00 0.  1.
       -3    1    3    3    0  502  0.52090405160E+03 -0.55692631358E+03  0.16590015087E+02  0.76274713276E+03  0.10100000352E+00 0. -1.
</event>
<event>
 5   0  0.6601906E-05  0.1698754E+04  0.7818609E-02  0.8762076E-01
       -1   -1    0    0    0  501  0.00000000000E+00  0.00000000000E+00  0.87730546954E+03  0.87730546956E+03  0.50400001928E-02 0.  1.
        1   -1    0    0  501    0  0.00000000000E+00  0.00000000000E+00 -0.82233716622E+03  0.82233716624E+03  0.50400001928E-02 0. -1.
    10030    2    1    2    0    0  0.00000000000E+00  0.00000000000E+00  0.54968303322E+02  0.16996426358E+04  0.16987535357E+04 0.  0.
        1    1    3    3  502    0 -0.63943241537E+02  0.43328404242E+03 -0.70064470046E+03  0.82627283379E+03  0.50400001928E-02 0. -1.
       -1    1    3    3    0  502  0.63943241537E+02 -0.43328404242E+03  0.75561300378E+03  0.87336980201E+03  0.50400001928E-02 0.  1.
</event>
<event>
 5   0  0.6615842E-05  0.1705116E+04  0.7818609E-02  0.8758452E-01
        1   -1    0    0  501    0  0.00000000000E+00  0.00000000000E+00  0.78087242303E+03  0.78087242304E+03  0.50400001928E-02 0. -1.
       -1   -1    0    0    0  501  0.00000000000E+00  0.00000000000E+00 -0.93082488798E+03  0.93082488799E+03  0.50400001928E-02 0.  1.
    10030    2    1    2    0    0  0.00000000000E+00  0.00000000000E+00 -0.14995246495E+03  0.17116973110E+04  0.17051164016E+04 0.  0.
        3    1    3    3  502    0  0.27590584529E+03  0.76377966416E+03  0.18558683896E+03  0.83302214607E+03  0.10100000352E+00 0. -1.
       -3    1    3    3    0  502 -0.27590584529E+03 -0.76377966416E+03 -0.33553930392E+03  0.87867516496E+03  0.10100000352E+00 0.  1.
</event>
<event>
 5   0  0.1393870E-04  0.1704539E+04  0.7818609E-02  0.8758780E-01
       -2   -1    0    0    0  501  0.00000000000E+00  0.00000000000E+00  0.55045180915E+03  0.55045180915E+03  0.25500000920E-02 0. -1.
        2   -1    0    0  501    0  0.00000000000E+00  0.00000000000E+00 -0.13195771066E+04  0.13195771066E+04  0.25500000920E-02 0.  1.
    10030    2    1    2    0    0  0.00000000000E+00  0.00000000000E+00 -0.76912529749E+03  0.18700289158E+04  0.17045393579E+04 0.  0.
        3    1    3    3  502    0 -0.18263636837E+03 -0.19077876022E+03  0.50442427126E+03  0.56938250240E+03  0.10100000352E+00 0. -1.
       -3    1    3    3    0  502  0.18263636837E+03  0.19077876022E+03 -0.12735495687E+04  0.13006464134E+04  0.10100000352E+00 0.  1.
</event>
<event>
 5   0  0.1269175E-04  0.1699210E+04  0.7818609E-02  0.8761815E-01
       -2   -1    0    0    0  501  0.00000000000E+00  0.00000000000E+00  0.37416207915E+03  0.37416207916E+03  0.25500000920E-02 0.  1.
        2   -1    0    0  501    0  0.00000000000E+00  0.00000000000E+00 -0.19291882334E+04  0.19291882334E+04  0.25500000920E-02 0. -1.
    10030    2    1    2    0    0  0.00000000000E+00  0.00000000000E+00 -0.15550261543E+04  0.23033503126E+04  0.16992104996E+04 0.  0.
        2    1    3    3  502    0  0.43259967981E+02 -0.11400494466E+03  0.36223900530E+03  0.38221152417E+03  0.25500000920E-02 0.  1.
       -2    1    3    3    0  502 -0.43259967981E+02  0.11400494466E+03 -0.19172651596E+04  0.19211387884E+04  0.25500000920E-02 0. -1.
</event>
<event>
 5   0  0.6564887E-05  0.1698528E+04  0.7818609E-02  0.8762204E-01
        1   -1    0    0  501    0  0.00000000000E+00  0.00000000000E+00  0.15613825776E+04  0.15613825776E+04  0.50400001928E-02 0.  1.
       -1   -1    0    0    0  501  0.00000000000E+00  0.00000000000E+00 -0.46193014317E+03  0.46193014320E+03  0.50400001928E-02 0. -1.
    10030    2    1    2    0    0  0.00000000000E+00  0.00000000000E+00  0.10994524344E+04  0.20233127208E+04  0.16985283956E+04 0.  0.
        4    1    3    3  502    0  0.52908073414E+03  0.33659121453E+03  0.12319795338E+04  0.13823875193E+04  0.12699999809E+01 0.  1.
       -4    1    3    3    0  502 -0.52908073414E+03 -0.33659121453E+03 -0.13252709938E+03  0.64092520149E+03  0.12699999809E+01 0. -1.
</event>
<event>
 5   0  0.1255362E-04  0.1707913E+04  0.7818609E-02  0.8756864E-01
        2   -1    0    0  501    0  0.00000000000E+00  0.00000000000E+00  0.71023017417E+03  0.71023017417E+03  0.25500000920E-02 0.  1.
       -2   -1    0    0    0  501  0.00000000000E+00  0.00000000000E+00 -0.10267675679E+04  0.10267675679E+04  0.25500000920E-02 0. -1.
    10030    2    1    2    0    0  0.00000000000E+00  0.00000000000E+00 -0.31653739372E+03  0.17369977421E+04  0.17079125371E+04 0.  0.
        1    1    3    3  502    0 -0.54292111059E+03 -0.35444581000E+03 -0.72347203623E+03  0.97149727318E+03  0.50400001928E-02 0. -1.
       -1    1    3    3    0  502  0.54292111059E+03  0.35444581000E+03  0.40693464252E+03  0.76550046888E+03  0.50400001928E-02 0.  1.
</event>
<event>
 5   0  0.4720875E-05  0.1702050E+04  0.7818609E-02  0.8760196E-01
       -4   -1    0    0    0  501  0.00000000000E+00  0.00000000000E+00  0.70520545558E+03  0.70520659914E+03  0.12699999809E+01 0. -1.
        4   -1    0    0  501    0  0.00000000000E+00  0.00000000000E+00 -0.10269935756E+04  0.10269943609E+04  0.12699999809E+01 0.  1.
    10030    2    1    2    0    0  0.00000000000E+00  0.00000000000E+00 -0.32178812004E+03  0.17322009600E+04  0.17020495209E+04 0.  0.
        2    1    3    3  502    0  0.29414400602E+03 -0.25966390579E+03  0.60766397244E+03  0.72332671985E+03  0.25500000920E-02 0. -1.
       -2    1    3    3    0  502 -0.29414400602E+03  0.25966390579E+03 -0.92945209247E+03  0.10088742402E+04  0.25500000920E-02 0.  1.
</event>
<event>
 5   0  0.6564887E-05  0.1695828E+04  0.7818609E-02  0.8763747E-01
        1   -1    0    0  501    0  0.00000000000E+00  0.00000000000E+00  0.14367107236E+04  0.14367107236E+04  0.50400001928E-02 0.  1.
       -1   -1    0    0    0  501  0.00000000000E+00  0.00000000000E+00 -0.50041964625E+03  0.50041964627E+03  0.50400001928E-02 0. -1.
    10030    2    1    2    0    0  0.00000000000E+00  0.00000000000E+00  0.93629107734E+03  0.19371303699E+04  0.16958281423E+04 0.  0.
        4    1    3    3  502    0 -0.24150667523E+03 -0.76050122913E+03  0.14050676336E+03  0.81020451562E+03  0.12699999809E+01 0. -1.
       -4    1    3    3    0  502  0.24150667523E+03  0.76050122913E+03  0.79578431398E+03  0.11269258542E+04  0.12699999809E+01 0.  1.
</event>
<event>
 5   0  0.1255362E-04  0.1701701E+04  0.7818609E-02  0.8760395E-01
        2   -1    0    0  501    0  0.00000000000E+00  0.00000000000E+00  0.99604777525E+03  0.99604777526E+03  0.25500000920E-02 0. -1.
       -2   -1    0    0    0  501  0.00000000000E+00  0.00000000000E+00 -0.72681869986E+03  0.72681869987E+03  0.25500000920E-02 0.  1.
    10030    2    1    2    0    0  0.00000000000E+00  0.00000000000E+00  0.26922907539E+03  0.17228664751E+04  0.17017005013E+04 0.  0.
        1    1    3    3  502    0 -0.53452300907E+03 -0.10501491730E+03  0.79635200700E+03  0.96484169642E+03  0.50400001928E-02 0. -1.
       -1    1    3    3    0  502  0.53452300907E+03  0.10501491730E+03 -0.52712293160E+03  0.75802477870E+03  0.50400001928E-02 0.  1.
</event>
<event>
 5   0  0.6601906E-05  0.1697493E+04  0.7818609E-02  0.8762796E-01
       -1   -1    0    0    0  501  0.00000000000E+00  0.00000000000E+00  0.39788652785E+03  0.39788652789E+03  0.50400001928E-02 0. -1.
        1   -1    0    0  501    0  0.00000000000E+00  0.00000000000E+00 -0.18104921871E+04  0.18104921871E+04  0.50400001928E-02 0.  1.
    10030    2    1    2    0    0  0.00000000000E+00  0.00000000000E+00 -0.14126056592E+04  0.22083787150E+04  0.16974927983E+04 0.  0.
        1    1    3    3  502    0  0.27872366356E+03 -0.50937124809E+03  0.99061232107E+02  0.58903232232E+03  0.50400001928E-02 0. -1.
       -1    1    3    3    0  502 -0.27872366356E+03  0.50937124809E+03 -0.15116668914E+04  0.16193463927E+04  0.50400001928E-02 0.  1.
</event>
<event>
 5   0  0.1255362E-04  0.1692975E+04  0.7818609E-02  0.8765381E-01
        2   -1    0    0  501    0  0.00000000000E+00  0.00000000000E+00  0.18399722180E+04  0.18399722180E+04  0.25500000920E-02 0.  1.
       -2   -1    0    0    0  501  0.00000000000E+00  0.00000000000E+00 -0.38943040211E+03  0.38943040212E+03  0.25500000920E-02 0. -1.
    10030    2    1    2    0    0  0.00000000000E+00  0.00000000000E+00  0.14505418159E+04  0.22294026201E+04  0.16929750391E+04 0.  0.
        1    1    3    3  502    0  0.67719056484E+03  0.47388749535E+03  0.48466200111E+03  0.95815117529E+03  0.50400001928E-02 0. -1.
       -1    1    3    3    0  502 -0.67719056484E+03 -0.47388749535E+03  0.96587981477E+03  0.12712514448E+04  0.50400001928E-02 0.  1.
</event>
<event>
 5   0  0.6564887E-05  0.1697630E+04  0.7818609E-02  0.8762717E-01
       -1   -1    0    0    0  501  0.00000000000E+00  0.00000000000E+00  0.71852014670E+03  0.71852014672E+03  0.50400001928E-02 0. -1.
        1   -1    0    0  501    0  0.00000000000E+00  0.00000000000E+00 -0.10027376119E+04  0.10027376120E+04  0.50400001928E-02 0.  1.
    10030    2    1    2    0    0  0.00000000000E+00  0.00000000000E+00 -0.28421746524E+03  0.17212577587E+04  0.16976303203E+04 0.  0.
        4    1    3    3  502    0  0.43522208498E+03 -0.49302396789E+03 -0.68622913487E+03  0.95047510994E+03  0.12699999809E+01 0.  1.
       -4    1    3    3    0  502 -0.43522208498E+03  0.49302396789E+03  0.40201166963E+03  0.77078264873E+03  0.12699999809E+01 0. -1.
</event>
<event>
 5   0  0.1269175E-04  0.1697618E+04  0.7818609E-02  0.8762724E-01
        2   -1    0    0  501    0  0.00000000000E+00  0.00000000000E+00  0.12285164918E+04  0.12285164918E+04  0.25500000920E-02 0.  1.
       -2   -1    0    0    0  501  0.00000000000E+00  0.00000000000E+00 -0.58646075839E+03  0.58646075839E+03  0.25500000920E-02 0. -1.
    10030    2    1    2    0    0  0.00000000000E+00  0.00000000000E+00  0.64205573342E+03  0.18149772502E+04  0.16976179941E+04 0.  0.
        2    1    3    3  502    0 -0.13484098057E+03  0.77760108494E+02 -0.57107142118E+03  0.59190480029E+03  0.25500000920E-02 0. -1.
       -2    1    3    3    0  502  0.13484098057E+03 -0.77760108494E+02  0.12131271546E+04  0.12230724499E+04  0.25500000920E-02 0.  1.
</event>
<event>
 5   0  0.1269175E-04  0.1698430E+04  0.7818609E-02  0.8762260E-01
       -2   -1    0    0    0  501  0.00000000000E+00  0.00000000000E+00  0.40379036699E+03  0.40379036700E+03  0.25500000920E-02 0.  1.
        2   -1    0    0  501    0  0.00000000000E+00  0.00000000000E+00 -0.17859923778E+04  0.17859923778E+04  0.25500000920E-02 0. -1.
    10030    2    1    2    0    0  0.00000000000E+00  0.00000000000E+00 -0.13822020108E+04  0.21897827448E+04  0.16984304727E+04 0.  0.
        2    1    3    3  502    0 -0.32671413940E+03 -0.32018976869E+03  0.23135794982E+03  0.51263058610E+03  0.25500000920E-02 0.  1.
       -2    1    3    3    0  502  0.32671413940E+03  0.32018976869E+03 -0.16135599606E+04  0.16771521587E+04  0.25500000920E-02 0. -1.
</event>
<event>
 5   0  0.6564887E-05  0.1697629E+04  0.7818609E-02  0.8762718E-01
       -1   -1    0    0    0  501  0.00000000000E+00  0.00000000000E+00  0.46722587647E+03  0.46722587650E+03  0.50400001928E-02 0.  1.
        1   -1    0    0  501    0  0.00000000000E+00  0.00000000000E+00 -0.15420503020E+04  0.15420503020E+04  0.50400001928E-02 0. -1.
    10030    2    1    2    0    0  0.00000000000E+00  0.00000000000E+00 -0.10748244255E+04  0.20092761785E+04  0.16976287037E+04 0.  0.
        4    1    3    3  502    0 -0.39493648233E+03 -0.74573149231E+03 -0.64584959151E+03  0.10626446214E+04  0.12699999809E+01 0.  1.
       -4    1    3    3    0  502  0.39493648233E+03  0.74573149231E+03 -0.42897483398E+03  0.94663155704E+03  0.12699999809E+01 0. -1.
</event>
<event>
 5   0  0.6834837E-05  0.1704429E+04  0.7818609E-02  0.8758842E-01
        1   -1    0    0  501    0  0.00000000000E+00  0.00000000000E+00  0.11993064868E+04  0.11993064868E+04  0.50400001928E-02 0.  1.
       -1   -1    0    0    0  501  0.00000000000E+00  0.00000000000E+00 -0.60557448350E+03  0.60557448352E+03  0.50400001928E-02 0. -1.
    10030    2    1    2    0    0  0.00000000000E+00  0.00000000000E+00  0.59373200327E+03  0.18048809703E+04  0.17044288267E+04 0.  0.
        5    1    3    3  502    0  0.42719081682E+03 -0.32465687997E+03 -0.40423696060E+03  0.67180629202E+03  0.46999998093E+01 0. -1.
       -5    1    3    3    0  502 -0.42719081682E+03  0.32465687997E+03  0.99796896387E+03  0.11330746783E+04  0.46999998093E+01 0.  1.
</event>
<event>
 5   0  0.6539134E-05  0.1692716E+04  0.7818609E-02  0.8765529E-01
        1   -1    0    0  501    0  0.00000000000E+00  0.00000000000E+00  0.13760654767E+04  0.13760654767E+04  0.50400001928E-02 0.  1.
       -1   -1    0    0    0  501  0.00000000000E+00  0.00000000000E+00 -0.52055815060E+03  0.52055815063E+03  0.50400001928E-02 0. -1.
    10030    2    1    2    0    0  0.00000000000E+00  0.00000000000E+00  0.85550732612E+03  0.18966236274E+04  0.16927162783E+04 0.  0.
        2    1    3    3  502    0  0.20072921777E+03 -0.52616976150E+03 -0.28015755714E+03  0.62899530492E+03  0.25500000920E-02 0. -1.
       -2    1    3    3    0  502 -0.20072921777E+03  0.52616976150E+03  0.11356648833E+04  0.12676283224E+04  0.25500000920E-02 0.  1.
</event>
<event>
 5   0  0.1393870E-04  0.1670041E+04  0.7818609E-02  0.8778638E-01
        2   -1    0    0  501    0  0.00000000000E+00  0.00000000000E+00  0.24155122507E+04  0.24155122507E+04  0.25500000920E-02 0.  1.
       -2   -1    0    0    0  501  0.00000000000E+00  0.00000000000E+00 -0.28865901891E+03  0.28865901892E+03  0.25500000920E-02 0. -1.
    10030    2    1    2    0    0  0.00000000000E+00  0.00000000000E+00  0.21268532318E+04  0.27041712696E+04  0.16700411929E+04 0.  0.
        3    1    3    3  502    0 -0.49824299997E+03 -0.16896394375E+03  0.13469236896E+02  0.52628540912E+03  0.10100000352E+00 0. -1.
       -3    1    3    3    0  502  0.49824299997E+03  0.16896394375E+03  0.21133839949E+04  0.21778858605E+04  0.10100000352E+00 0.  1.
</event>
<event>
 5   0  0.6539134E-05  0.1700220E+04  0.7818609E-02  0.8761239E-01
       -1   -1    0    0    0  501  0.00000000000E+00  0.00000000000E+00  0.16672537554E+04  0.16672537554E+04  0.50400001928E-02 0. -1.
        1   -1    0    0  501    0  0.00000000000E+00  0.00000000000E+00 -0.43345929135E+03  0.43345929138E+03  0.50400001928E-02 0.  1.
    10030    2    1    2    0    0  0.00000000000E+00  0.00000000000E+00  0.12337944641E+04  0.21007130468E+04  0.17002195521E+04 0.  0.
        2    1    3    3  502    0  0.32643093244E+03  0.71363247914E+02  0.15827154592E+04  0.16176025753E+04  0.25500000920E-02 0. -1.
       -2    1    3    3    0  502 -0.32643093244E+03 -0.71363247914E+02 -0.34892099514E+03  0.48311047149E+03  0.25500000920E-02 0.  1.
</event>
<event>
 5   0  0.6601906E-05  0.1701007E+04  0.7818609E-02  0.8760790E-01
       -1   -1    0    0    0  501  0.00000000000E+00  0.00000000000E+00  0.27086201002E+03  0.27086201006E+03  0.50400001928E-02 0. -1.
        1   -1    0    0  501    0  0.00000000000E+00  0.00000000000E+00 -0.26705709387E+04  0.26705709387E+04  0.50400001928E-02 0.  1.
    10030    2    1    2    0    0  0.00000000000E+00  0.00000000000E+00 -0.23997089287E+04  0.29414329488E+04  0.17010070105E+04 0.  0.
        1    1    3    3  502    0  0.39105902735E+03 -0.57984564549E+03 -0.36299258866E+03  0.78797953966E+03  0.50400001928E-02 0. -1.
       -1    1    3    3    0  502 -0.39105902735E+03  0.57984564549E+03 -0.20367163401E+04  0.21534534091E+04  0.50400001928E-02 0.  1.
</event>
<event>
 5   0  0.1255362E-04  0.1681266E+04  0.7818609E-02  0.8772122E-01
        2   -1    0    0  501    0  0.00000000000E+00  0.00000000000E+00  0.12655833634E+04  0.12655833634E+04  0.25500000920E-02 0.  1.
       -2   -1    0    0    0  501  0.00000000000E+00  0.00000000000E+00 -0.55837017931E+03  0.55837017932E+03  0.25500000920E-02 0. -1.
    10030    2    1    2    0    0  0.00000000000E+00  0.00000000000E+00  0.70721318410E+03  0.18239535427E+04  0.16812662009E+04 0.  0.
        1    1    3    3  502    0  0.14665637220E+03 -0.54069213263E+03 -0.32632843826E+03  0.64834120911E+03  0.50400001928E-02 0. -1.
       -1    1    3    3    0  502 -0.14665637220E+03  0.54069213263E+03  0.10335416224E+04  0.11756123336E+04  0.50400001928E-02 0.  1.
</event>
<event>
 5   0  0.4720875E-05  0.1699764E+04  0.7818609E-02  0.8761499E-01
        3   -1    0    0  501    0  0.00000000000E+00  0.00000000000E+00  0.52215176498E+03  0.52215177475E+03  0.10100000352E+00 0.  1.
       -3   -1    0    0    0  501  0.00000000000E+00  0.00000000000E+00 -0.13833125619E+04  0.13833125656E+04  0.10100000352E+00 0. -1.
    10030    2    1    2    0    0  0.00000000000E+00  0.00000000000E+00 -0.86116079694E+03  0.19054643404E+04  0.16997636407E+04 0.  0.
        2    1    3    3  502    0 -0.17002730066E+03 -0.17941232775E+03  0.48096657878E+03  0.54076512112E+03  0.25500000920E-02 0.  1.
       -2    1    3    3    0  502  0.17002730066E+03  0.17941232775E+03 -0.13421273757E+04  0.13646992192E+04  0.25500000920E-02 0. -1.
</event>
<event>
 5   0  0.6834837E-05  0.1697573E+04  0.7818609E-02  0.8762750E-01
       -1   -1    0    0    0  501  0.00000000000E+00  0.00000000000E+00  0.10330469173E+04  0.10330469173E+04  0.50400001928E-02 0. -1.
        1   -1    0    0  501    0  0.00000000000E+00  0.00000000000E+00 -0.69739152938E+03  0.69739152939E+03  0.50400001928E-02 0.  1.
    10030    2    1    2    0    0  0.00000000000E+00  0.00000000000E+00  0.33565538790E+03  0.17304384467E+04  0.16975725841E+04 0.  0.
        5    1    3    3  502    0  0.30352062725E+03  0.78516585054E+03  0.27858624651E+03  0.88670320331E+03  0.46999998093E+01 0. -1.
       -5    1    3    3    0  502 -0.30352062725E+03 -0.78516585054E+03  0.57069141389E+02  0.84373524337E+03  0.46999998093E+01 0.  1.
</event>
<event>
 5   0  0.1269175E-04  0.1697512E+04  0.7818609E-02  0.8762784E-01
        2   -1    0    0  501    0  0.00000000000E+00  0.00000000000E+00  0.13408033376E+04  0.13408033376E+04  0.25500000920E-02 0. -1.
       -2   -1    0    0    0  501  0.00000000000E+00  0.00000000000E+00 -0.53728023988E+03  0.53728023989E+03  0.25500000920E-02 0.  1.
    10030    2    1    2    0    0  0.00000000000E+00  0.00000000000E+00  0.80352309774E+03  0.18780835775E+04  0.16975124611E+04 0.  0.
        2    1    3    3  502    0 -0.63024069042E+03  0.10165381191E+03 -0.21706685786E+03  0.67428098455E+03  0.25500000920E-02 0.  1.
       -2    1    3    3    0  502  0.63024069042E+03 -0.10165381191E+03  0.10205899556E+04  0.12038025930E+04  0.25500000920E-02 0. -1.
</event>
<event>
 5   0  0.1269175E-04  0.1695897E+04  0.7818609E-02  0.8763708E-01
       -2   -1    0    0    0  501  0.00000000000E+00  0.00000000000E+00  0.13734040715E+04  0.13734040715E+04  0.25500000920E-02 0. -1.
        2   -1    0    0  501    0  0.00000000000E+00  0.00000000000E+00 -0.52352904044E+03  0.52352904045E+03  0.25500000920E-02 0.  1.
    10030    2    1    2    0    0  0.00000000000E+00  0.00000000000E+00  0.84987503104E+03  0.18969331119E+04  0.16958973031E+04 0.  0.
        2    1    3    3  502    0 -0.71107791736E+03 -0.18802827273E+03  0.89689149132E+03  0.11599141275E+04  0.25500000920E-02 0. -1.
       -2    1    3    3    0  502  0.71107791736E+03  0.18802827273E+03 -0.47016460277E+02  0.73701898446E+03  0.25500000920E-02 0.  1.
</event>
<event>
 5   0  0.6615842E-05  0.1701200E+04  0.7818609E-02  0.8760680E-01
        1   -1    0    0  501    0  0.00000000000E+00  0.00000000000E+00  0.84963098022E+03  0.84963098024E+03  0.50400001928E-02 0.  1.
       -1   -1    0    0    0  501  0.00000000000E+00  0.00000000000E+00 -0.85156991610E+03  0.85156991611E+03  0.50400001928E-02 0. -1.
    10030    2    1    2    0    0  0.00000000000E+00  0.00000000000E+00 -0.19389358768E+01  0.17012008963E+04  0.17011997914E+04 0.  0.
        3    1    3    3  502    0  0.53124698808E+03 -0.63192244279E+03  0.20389851601E+03  0.85036695083E+03  0.10100000352E+00 0. -1.
       -3    1    3    3    0  502 -0.53124698808E+03  0.63192244279E+03 -0.20583745188E+03  0.85083394551E+03  0.10100000352E+00 0.  1.
</event>
<event>
 5   0  0.1333546E-04  0.1699582E+04  0.7818609E-02  0.8761603E-01
       -2   -1    0    0    0  501  0.00000000000E+00  0.00000000000E+00  0.19562241384E+04  0.19562241384E+04  0.25500000920E-02 0. -1.
        2   -1    0    0  501    0  0.00000000000E+00  0.00000000000E+00 -0.36915245566E+03  0.36915245567E+03  0.25500000920E-02 0.  1.
    10030    2    1    2    0    0  0.00000000000E+00  0.00000000000E+00  0.15870716828E+04  0.23253765941E+04  0.16995822364E+04 0.  0.
        5    1    3    3  502    0  0.79292130828E+03  0.30008827382E+03  0.87267535921E+03  0.12167010914E+04  0.46999998093E+01 0. -1.
       -5    1    3    3    0  502 -0.79292130828E+03 -0.30008827382E+03  0.71439632355E+03  0.11086755027E+04  0.46999998093E+01 0.  1.
</event>
<event>
 5   0  0.6564887E-05  0.1669150E+04  0.7818609E-02  0.8779158E-01
        1   -1    0    0  501    0  0.00000000000E+00  0.00000000000E+00  0.23829643326E+04  0.23829643326E+04  0.50400001928E-02 0.  1.
       -1   -1    0    0    0  501  0.00000000000E+00  0.00000000000E+00 -0.29228936717E+03  0.29228936721E+03  0.50400001928E-02 0. -1.
    10030    2    1    2    0    0  0.00000000000E+00  0.00000000000E+00  0.20906749655E+04  0.26752536998E+04  0.16691496480E+04 0.  0.
        4    1    3    3  502    0 -0.73721362213E+03 -0.20994948739E+03  0.15743731269E+04  0.17510611261E+04  0.12699999809E+01 0.  1.
       -4    1    3    3    0  502  0.73721362213E+03  0.20994948739E+03  0.51630183859E+03  0.92419257373E+03  0.12699999809E+01 0. -1.
</event>
<event>
 5   0  0.1269175E-04  0.1696589E+04  0.7818609E-02  0.8763312E-01
       -2   -1    0    0    0  501  0.00000000000E+00  0.00000000000E+00  0.52935289986E+03  0.52935289987E+03  0.25500000920E-02 0. -1.
        2   -1    0    0  501    0  0.00000000000E+00  0.00000000000E+00 -0.13594025597E+04  0.13594025597E+04  0.25500000920E-02 0.  1.
    10030    2    1    2    0    0  0.00000000000E+00  0.00000000000E+00 -0.83004965981E+03  0.18887554595E+04  0.16965891513E+04 0.  0.
        2    1    3    3  502    0 -0.35445003121E+03  0.62142412765E+03  0.92459662705E+02  0.72135397711E+03  0.25500000920E-02 0. -1.
       -2    1    3    3    0  502  0.35445003121E+03 -0.62142412765E+03 -0.92250932252E+03  0.11674014824E+04  0.25500000920E-02 0.  1.
</event>
<event>
 5   0  0.6834837E-05  0.1695696E+04  0.7818609E-02  0.8763823E-01
       -1   -1    0    0    0  501  0.00000000000E+00  0.00000000000E+00  0.86528505352E+03  0.86528505354E+03  0.50400001928E-02 0. -1.
        1   -1    0    0  501    0  0.00000000000E+00  0.00000000000E+00 -0.83076264304E+03  0.83076264305E+03  0.50400001928E-02 0.  1.
    10030    2    1    2    0    0  0.00000000000E+00  0.00000000000E+00  0.34522410485E+02  0.16960476966E+04  0.16956963149E+04 0.  0.
        5    1    3    3  502    0 -0.27567691106E+03  0.52143791100E+03  0.62642694406E+03  0.86042318691E+03  0.46999998093E+01 0. -1.
       -5    1    3    3    0  502  0.27567691106E+03 -0.52143791100E+03 -0.59190453358E+03  0.83562450969E+03  0.46999998093E+01 0.  1.
</event>
<event>
 5   0  0.4720875E-05  0.1657977E+04  0.7818609E-02  0.8785701E-01
        3   -1    0    0  501    0  0.00000000000E+00  0.00000000000E+00  0.55473621263E+03  0.55473622182E+03  0.10100000352E+00 0. -1.
       -3   -1    0    0    0  501  0.00000000000E+00  0.00000000000E+00 -0.12388266580E+04  0.12388266621E+04  0.10100000352E+00 0.  1.
    10030    2    1    2    0    0  0.00000000000E+00  0.00000000000E+00 -0.68409044535E+03  0.17935628839E+04  0.16579771051E+04 0.  0.
        2    1    3    3  502    0 -0.30665047921E+03  0.60584627472E+03 -0.85647329000E+03  0.10929916383E+04  0.25500000920E-02 0.  1.
       -2    1    3    3    0  502  0.30665047921E+03 -0.60584627472E+03  0.17238284465E+03  0.70057124557E+03  0.25500000920E-02 0. -1.
</event>
<event>
 5   0  0.6539134E-05  0.1695455E+04  0.7818609E-02  0.8763961E-01
        1   -1    0    0  501    0  0.00000000000E+00  0.00000000000E+00  0.10823332101E+04  0.10823332101E+04  0.50400001928E-02 0. -1.
       -1   -1    0    0    0  501  0.00000000000E+00  0.00000000000E+00 -0.66397465852E+03  0.66397465854E+03  0.50400001928E-02 0.  1.
    10030    2    1    2    0    0  0.00000000000E+00  0.00000000000E+00  0.41835855161E+03  0.17463078687E+04  0.16954548931E+04 0.  0.
        2    1    3    3  502    0 -0.58867505225E+03 -0.53204629028E+03 -0.98149602545E+02  0.79952793361E+03  0.25500000920E-02 0. -1.
       -2    1    3    3    0  502  0.58867505225E+03  0.53204629028E+03  0.51650815416E+03  0.94677993507E+03  0.25500000920E-02 0.  1.
</event>
<event>
 5   0  0.6834837E-05  0.1700297E+04  0.7818609E-02  0.8761195E-01
        1   -1    0    0  501    0  0.00000000000E+00  0.00000000000E+00  0.12047518222E+04  0.12047518222E+04  0.50400001928E-02 0.  1.
       -1   -1    0    0    0  501  0.00000000000E+00  0.00000000000E+00 -0.59991817762E+03  0.59991817764E+03  0.50400001928E-02 0. -1.
    10030    2    1    2    0    0  0.00000000000E+00  0.00000000000E+00  0.60483364454E+03  0.18046699998E+04  0.17002970537E+04 0.  0.
        5    1    3    3  502    0  0.16647766854E+03  0.71246002260E+03 -0.15707386199E+03  0.74833708050E+03  0.46999998093E+01 0. -1.
       -5    1    3    3    0  502 -0.16647766854E+03 -0.71246002260E+03  0.76190750653E+03  0.10563329193E+04  0.46999998093E+01 0.  1.
</event>
<event>
 5   0  0.1269175E-04  0.1709849E+04  0.7818609E-02  0.8755767E-01
        2   -1    0    0  501    0  0.00000000000E+00  0.00000000000E+00  0.13780172459E+04  0.13780172459E+04  0.25500000920E-02 0.  1.
       -2   -1    0    0    0  501  0.00000000000E+00  0.00000000000E+00 -0.53039688528E+03  0.53039688529E+03  0.25500000920E-02 0. -1.
    10030    2    1    2    0    0  0.00000000000E+00  0.00000000000E+00  0.84762036064E+03  0.19084141312E+04  0.17098491806E+04 0.  0.
        2    1    3    3  502    0 -0.13943867650E+03 -0.76219422273E+03  0.20590703773E+02  0.77511751029E+03  0.25500000920E-02 0. -1.
       -2    1    3    3    0  502  0.13943867650E+03  0.76219422273E+03  0.82702965687E+03  0.11332966209E+04  0.25500000920E-02 0.  1.
</event>
<event>
 5   0  0.1269175E-04  0.1701367E+04  0.7818609E-02  0.8760585E-01
        2   -1    0    0  501    0  0.00000000000E+00  0.00000000000E+00  0.21320430608E+04  0.21320430608E+04  0.25500000920E-02 0. -1.
       -2   -1    0    0    0  501  0.00000000000E+00  0.00000000000E+00 -0.33942195648E+03  0.33942195649E+03  0.25500000920E-02 0.  1.
    10030    2    1    2    0    0  0.00000000000E+00  0.00000000000E+00  0.17926211043E+04  0.24714650173E+04  0.17013667765E+04 0.  0.
        2    1    3    3  502    0 -0.15744741304E+03  0.24082789566E+02  0.21101890725E+04  0.21161917660E+04  0.25500000920E-02 0. -1.
       -2    1    3    3    0  502  0.15744741304E+03 -0.24082789566E+02 -0.31756796822E+03  0.35527325128E+03  0.25500000920E-02 0.  1.
</event>
<event>
 5   0  0.6564887E-05  0.1638521E+04  0.7818609E-02  0.8797226E-01
       -1   -1    0    0    0  501  0.00000000000E+00  0.00000000000E+00  0.90029215047E+03  0.90029215049E+03  0.50400001928E-02 0. -1.
        1   -1    0    0  501    0  0.00000000000E+00  0.00000000000E+00 -0.74552251100E+03  0.74552251102E+03  0.50400001928E-02 0.  1.
    10030    2    1    2    0    0  0.00000000000E+00  0.00000000000E+00  0.15476963947E+03  0.16458146615E+04  0.16385213635E+04 0.  0.
        4    1    3    3  502    0 -0.70261757147E+03 -0.28262181390E+03 -0.23647990252E+03  0.79339202077E+03  0.12699999809E+01 0.  1.
       -4    1    3    3    0  502  0.70261757147E+03  0.28262181390E+03  0.39124954199E+03  0.85242264073E+03  0.12699999809E+01 0. -1.
</event>
<event>
 5   0  0.1285639E-04  0.1695295E+04  0.7818609E-02  0.8764052E-01
       -2   -1    0    0    0  501  0.00000000000E+00  0.00000000000E+00  0.59423256856E+03  0.59423256856E+03  0.25500000920E-02 0.  1.
        2   -1    0    0  501    0  0.00000000000E+00  0.00000000000E+00 -0.12091334868E+04  0.12091334868E+04  0.25500000920E-02 0. -1.
    10030    2    1    2    0    0  0.00000000000E+00  0.00000000000E+00 -0.61490091829E+03  0.18033660554E+04  0.16952952517E+04 0.  0.
        4    1    3    3  502    0  0.78246551020E+03  0.31952418068E+03 -0.37603460795E+03  0.92506843853E+03  0.12699999809E+01 0.  1.
       -4    1    3    3    0  502 -0.78246551020E+03 -0.31952418068E+03 -0.23886631034E+03  0.87829761687E+03  0.12699999809E+01 0. -1.
</event>
<event>
 5   0  0.4720875E-05  0.1697465E+04  0.7818609E-02  0.8762812E-01
        3   -1    0    0  501    0  0.00000000000E+00  0.00000000000E+00  0.19299354969E+04  0.19299354996E+04  0.10100000352E+00 0. -1.
       -3   -1    0    0    0  501  0.00000000000E+00  0.00000000000E+00 -0.37324909308E+03  0.37324910675E+03  0.10100000352E+00 0.  1.
    10030    2    1    2    0    0  0.00000000000E+00  0.00000000000E+00  0.15566864038E+04  0.23031846063E+04  0.16974648070E+04 0.  0.
        3    1    3    3  502    0  0.49764836078E+03 -0.21929053505E+03 -0.10579517584E+03  0.55401702066E+03  0.10100000352E+00 0.  1.
       -3    1    3    3    0  502 -0.49764836078E+03  0.21929053505E+03  0.16624815797E+04  0.17491675856E+04  0.10100000352E+00 0. -1.
</event>
<event>
 5   0  0.4720875E-05  0.1628271E+04  0.7818609E-02  0.8803366E-01
        3   -1    0    0  501    0  0.00000000000E+00  0.00000000000E+00  0.53573030352E+03  0.53573031304E+03  0.10100000352E+00 0. -1.
       -3   -1    0    0    0  501  0.00000000000E+00  0.00000000000E+00 -0.12372210723E+04  0.12372210764E+04  0.10100000352E+00 0.  1.
    10030    2    1    2    0    0  0.00000000000E+00  0.00000000000E+00 -0.70149076880E+03  0.17729513895E+04  0.16282712706E+04 0.  0.
        2    1    3    3  502    0 -0.55684740982E+03  0.31867483611E+03 -0.89646074512E+03  0.11023949186E+04  0.25500000920E-02 0.  1.
       -2    1    3    3    0  502  0.55684740982E+03 -0.31867483611E+03  0.19496997632E+03  0.67055647089E+03  0.25500000920E-02 0. -1.
</event>
<event>
 5   0  0.6615842E-05  0.1691611E+04  0.7818609E-02  0.8766163E-01
       -1   -1    0    0    0  501  0.00000000000E+00  0.00000000000E+00  0.51090706014E+03  0.51090706017E+03  0.50400001928E-02 0. -1.
        1   -1    0    0  501    0  0.00000000000E+00  0.00000000000E+00 -0.14002297807E+04  0.14002297807E+04  0.50400001928E-02 0.  1.
    10030    2    1    2    0    0  0.00000000000E+00  0.00000000000E+00 -0.88932272052E+03  0.19111368408E+04  0.16916113984E+04 0.  0.
        3    1    3    3  502    0  0.12120776336E+03 -0.70949567098E+03  0.57181507828E+02  0.72204235615E+03  0.10100000352E+00 0. -1.
       -3    1    3    3    0  502 -0.12120776336E+03  0.70949567098E+03 -0.94650422835E+03  0.11890944847E+04  0.10100000352E+00 0.  1.
</event>
<event>
 5   0  0.1269175E-04  0.1696422E+04  0.7818609E-02  0.8763408E-01
        2   -1    0    0  501    0  0.00000000000E+00  0.00000000000E+00  0.10370933275E+04  0.10370933275E+04  0.25500000920E-02 0.  1.
       -2   -1    0    0    0  501  0.00000000000E+00  0.00000000000E+00 -0.69372912569E+03  0.69372912569E+03  0.25500000920E-02 0. -1.
    10030    2    1    2    0    0  0.00000000000E+00  0.00000000000E+00  0.34336420181E+03  0.17308224532E+04  0.16964219373E+04 0.  0.
        2    1    3    3  502    0  0.59315632181E+03 -0.59761359177E+03  0.27615690358E+03  0.88613715788E+03  0.25500000920E-02 0. -1.
       -2    1    3    3    0  502 -0.59315632181E+03  0.59761359177E+03  0.67207298228E+02  0.84468529531E+03  0.25500000920E-02 0.  1.
</event>
<event>
 5   0  0.6601906E-05  0.1701207E+04  0.7818609E-02  0.8760676E-01
       -1   -1    0    0    0  501  0.00000000000E+00  0.00000000000E+00  0.77568294063E+03  0.77568294065E+03  0.50400001928E-02 0. -1.
        1   -1    0    0  501    0  0.00000000000E+00  0.00000000000E+00 -0.93275993321E+03  0.93275993322E+03  0.50400001928E-02 0.  1.
    10030    2    1    2    0    0  0.00000000000E+00  0.00000000000E+00 -0.15707699258E+03  0.17084428739E+04  0.17012065929E+04 0.  0.
        1    1    3    3  502    0 -0.11841148118E+03 -0.79800321270E+03 -0.34930650579E+03  0.87911628433E+03  0.50400001928E-02 0.  1.
       -1    1    3    3    0  502  0.11841148118E+03  0.79800321270E+03  0.19222951321E+03  0.82932658955E+03  0.50400001928E-02 0. -1.
</event>
<event>
 5   0  0.1269175E-04  0.1703478E+04  0.7818609E-02  0.8759383E-01
        2   -1    0    0  501    0  0.00000000000E+00  0.00000000000E+00  0.13024052650E+04  0.13024052650E+04  0.25500000920E-02 0. -1.
       -2   -1    0    0    0  501  0.00000000000E+00  0.00000000000E+00 -0.55701478573E+03  0.55701478574E+03  0.25500000920E-02 0.  1.
    10030    2    1    2    0    0  0.00000000000E+00  0.00000000000E+00  0.74539047924E+03  0.18594200507E+04  0.17034776073E+04 0.  0.
        2    1    3    3  502    0  0.50769011901E+03  0.18442945575E+03 -0.34614692455E+03  0.64154592546E+03  0.25500000920E-02 0.  1.
       -2    1    3    3    0  502 -0.50769011901E+03 -0.18442945575E+03  0.10915374038E+04  0.12178741253E+04  0.25500000920E-02 0. -1.
</event>
<event>
 5   0  0.1269175E-04  0.1693694E+04  0.7818609E-02  0.8764969E-01
       -2   -1    0    0    0  501  0.00000000000E+00  0.00000000000E+00  0.52392054217E+03  0.52392054218E+03  0.25500000920E-02 0.  1.
        2   -1    0    0  501    0  0.00000000000E+00  0.00000000000E+00 -0.13688134312E+04  0.13688134312E+04  0.25500000920E-02 0. -1.
    10030    2    1    2    0    0  0.00000000000E+00  0.00000000000E+00 -0.84489288901E+03  0.18927339734E+04  0.16936935673E+04 0.  0.
        2    1    3    3  502    0 -0.38232009051E+02  0.48089976077E+03  0.35535225090E+03  0.59916732942E+03  0.25500000920E-02 0.  1.
       -2    1    3    3    0  502  0.38232009051E+02 -0.48089976077E+03 -0.12002451399E+04  0.12935666439E+04  0.25500000920E-02 0. -1.
</event>
<event>
 5   0  0.6615842E-05  0.1693775E+04  0.7818609E-02  0.8764923E-01
        1   -1    0    0  501    0  0.00000000000E+00  0.00000000000E+00  0.10178829639E+04  0.10178829639E+04  0.50400001928E-02 0. -1.
       -1   -1    0    0    0  501  0.00000000000E+00  0.00000000000E+00 -0.70461737275E+03  0.70461737277E+03  0.50400001928E-02 0.  1.
    10030    2    1    2    0    0  0.00000000000E+00  0.00000000000E+00  0.31326559112E+03  0.17225003366E+04  0.16937745066E+04 0.  0.
        3    1    3    3  502    0 -0.25308273407E+03 -0.61565638944E+03 -0.37582532135E+03  0.76441372470E+03  0.10100000352E+00 0.  1.
       -3    1    3    3    0  502  0.25308273407E+03  0.61565638944E+03  0.68909091247E+03  0.95808661194E+03  0.10100000352E+00 0. -1.
</event>
<event>
 5   0  0.6601906E-05  0.1694938E+04  0.7818609E-02  0.8764257E-01
       -1   -1    0    0    0  501  0.00000000000E+00  0.00000000000E+00  0.85949128326E+03  0.85949128327E+03  0.50400001928E-02 0.  1.
        1   -1    0    0  501    0  0.00000000000E+00  0.00000000000E+00 -0.83561448116E+03  0.83561448118E+03  0.50400001928E-02 0. -1.
    10030    2    1    2    0    0  0.00000000000E+00  0.00000000000E+00  0.23876802093E+02  0.16951057644E+04  0.16949375950E+04 0.  0.
        1    1    3    3  502    0 -0.79216498914E+03  0.27256181680E+03 -0.11609011490E+03  0.84574950712E+03  0.50400001928E-02 0. -1.
       -1    1    3    3    0  502  0.79216498914E+03 -0.27256181680E+03  0.13996691700E+03  0.84935625733E+03  0.50400001928E-02 0.  1.
</event>
<event>
 5   0  0.6615842E-05  0.1702358E+04  0.7818609E-02  0.8760021E-01
       -1   -1    0    0    0  501  0.00000000000E+00  0.00000000000E+00  0.46309806139E+03  0.46309806142E+03  0.50400001928E-02 0.  1.
        1   -1    0    0  501    0  0.00000000000E+00  0.00000000000E+00 -0.15644760762E+04  0.15644760762E+04  0.50400001928E-02 0. -1.
    10030    2    1    2    0    0  0.00000000000E+00  0.00000000000E+00 -0.11013780148E+04  0.20275741376E+04  0.17023581739E+04 0.  0.
        3    1    3    3  502    0 -0.48537574036E+03  0.13142010251E+03 -0.13686515356E+04  0.14581042106E+04  0.10100000352E+00 0. -1.
       -3    1    3    3    0  502  0.48537574036E+03 -0.13142010251E+03  0.26727352084E+03  0.56946992705E+03  0.10100000352E+00 0.  1.
</event>
<event>
 5   0  0.4720875E-05  0.1728028E+04  0.7818609E-02  0.8745538E-01
       -3   -1    0    0    0  501  0.00000000000E+00  0.00000000000E+00  0.71097236954E+03  0.71097237671E+03  0.10100000352E+00 0. -1.
        3   -1    0    0  501    0  0.00000000000E+00  0.00000000000E+00 -0.10499990713E+04  0.10499990762E+04  0.10100000352E+00 0.  1.
    10030    2    1    2    0    0  0.00000000000E+00  0.00000000000E+00 -0.33902670181E+03  0.17609714529E+04  0.17280281692E+04 0.  0.
        1    1    3    3  502    0 -0.52761360883E+03  0.12278525537E+03 -0.85544871215E+03  0.10125437464E+04  0.50400001928E-02 0.  1.
       -1    1    3    3    0  502  0.52761360883E+03 -0.12278525537E+03  0.51642201034E+03  0.74842770656E+03  0.50400001928E-02 0. -1.
</event>
<event>
 5   0  0.6564887E-05  0.1679930E+04  0.7818609E-02  0.8772894E-01
        1   -1    0    0  501    0  0.00000000000E+00  0.00000000000E+00  0.60931827369E+03  0.60931827372E+03  0.50400001928E-02 0. -1.
       -1   -1    0    0    0  501  0.00000000000E+00  0.00000000000E+00 -0.11579196495E+04  0.11579196495E+04  0.50400001928E-02 0.  1.
    10030    2    1    2    0    0  0.00000000000E+00  0.00000000000E+00 -0.54860137580E+03  0.17672379232E+04  0.16799304771E+04 0.  0.
        4    1    3    3  502    0 -0.74540552806E+03 -0.36308449013E+03 -0.41575162161E+03  0.92752939145E+03  0.12699999809E+01 0.  1.
       -4    1    3    3    0  502  0.74540552806E+03  0.36308449013E+03 -0.13284975418E+03  0.83970853176E+03  0.12699999809E+01 0. -1.
</event>
<event>
 5   0  0.6564887E-05  0.1714054E+04  0.7818609E-02  0.8753389E-01
        1   -1    0    0  501    0  0.00000000000E+00  0.00000000000E+00  0.10179377284E+04  0.10179377285E+04  0.50400001928E-02 0.  1.
       -1   -1    0    0    0  501  0.00000000000E+00  0.00000000000E+00 -0.72155231429E+03  0.72155231431E+03  0.50400001928E-02 0. -1.
    10030    2    1    2    0    0  0.00000000000E+00  0.00000000000E+00  0.29638541414E+03  0.17394900428E+04  0.17140540526E+04 0.  0.
        4    1    3    3  502    0  0.74899946405E+03  0.41448888652E+03  0.18994292836E+03  0.87685869051E+03  0.12699999809E+01 0.  1.
       -4    1    3    3    0  502 -0.74899946405E+03 -0.41448888652E+03  0.10644248579E+03  0.86263135225E+03  0.12699999809E+01 0. -1.
</event>
<event>
 5   0  0.1255362E-04  0.1703568E+04  0.7818609E-02  0.8759332E-01
       -2   -1    0    0    0  501  0.00000000000E+00  0.00000000000E+00  0.90674071129E+03  0.90674071130E+03  0.25500000920E-02 0.  1.
        2   -1    0    0  501    0  0.00000000000E+00  0.00000000000E+00 -0.80015861427E+03  0.80015861428E+03  0.25500000920E-02 0. -1.
    10030    2    1    2    0    0  0.00000000000E+00  0.00000000000E+00  0.10658209702E+03  0.17068993256E+04  0.17035684795E+04 0.  0.
        1    1    3    3  502    0 -0.31909854658E+03 -0.78598829422E+03  0.13048004201E+03  0.85826949291E+03  0.50400001928E-02 0.  1.
       -1    1    3    3    0  502  0.31909854658E+03  0.78598829422E+03 -0.23897944991E+02  0.84862983266E+03  0.50400001928E-02 0. -1.
</event>
<event>
 5   0  0.1393870E-04  0.1703273E+04  0.7818609E-02  0.8759500E-01
        2   -1    0    0  501    0  0.00000000000E+00  0.00000000000E+00  0.19527011119E+04  0.19527011119E+04  0.25500000920E-02 0. -1.
       -2   -1    0    0    0  501  0.00000000000E+00  0.00000000000E+00 -0.37142651436E+03  0.37142651437E+03  0.25500000920E-02 0.  1.
    10030    2    1    2    0    0  0.00000000000E+00  0.00000000000E+00  0.15812745976E+04  0.23241276263E+04  0.17032732812E+04 0.  0.
        3    1    3    3  502    0 -0.22805095113E+03 -0.72712919870E+03  0.27183608312E+03  0.80908527004E+03  0.10100000352E+00 0.  1.
       -3    1    3    3    0  502  0.22805095113E+03  0.72712919870E+03  0.13094385144E+04  0.15150423562E+04  0.10100000352E+00 0. -1.
</event>
<event>
 5   0  0.4720875E-05  0.1697750E+04  0.7818609E-02  0.8762649E-01
       -3   -1    0    0    0  501  0.00000000000E+00  0.00000000000E+00  0.75630063409E+03  0.75630064084E+03  0.10100000352E+00 0. -1.
        3   -1    0    0  501    0  0.00000000000E+00  0.00000000000E+00 -0.95278059772E+03  0.95278060307E+03  0.10100000352E+00 0.  1.
    10030    2    1    2    0    0  0.00000000000E+00  0.00000000000E+00 -0.19647996362E+03  0.17090812439E+04  0.16977497820E+04 0.  0.
        2    1    3    3  502    0  0.15469008756E+03  0.35409893420E+03  0.66263107644E+03  0.76706911153E+03  0.25500000920E-02 0. -1.
       -2    1    3    3    0  502 -0.15469008756E+03 -0.35409893420E+03 -0.85911104006E+03  0.94201213238E+03  0.25500000920E-02 0.  1.
</event>
<event>
 5   0  0.1269175E-04  0.1702909E+04  0.7818609E-02  0.8759707E-01
        2   -1    0    0  501    0  0.00000000000E+00  0.00000000000E+00  0.12206440500E+04  0.12206440500E+04  0.25500000920E-02 0.  1.
       -2   -1    0    0    0  501  0.00000000000E+00  0.00000000000E+00 -0.59392819661E+03  0.59392819661E+03  0.25500000920E-02 0. -1.
    10030    2    1    2    0    0  0.00000000000E+00  0.00000000000E+00  0.62671585340E+03  0.18145722466E+04  0.17029091806E+04 0.  0.
        2    1    3    3  502    0 -0.71261024910E+03  0.37941417471E+03  0.60166640247E+03  0.10068619284E+04  0.25500000920E-02 0.  1.
       -2    1    3    3    0  502  0.71261024910E+03 -0.37941417471E+03  0.25049450931E+02  0.80771031817E+03  0.25500000920E-02 0. -1.
</event>
<event>
 5   0  0.1285639E-04  0.1696470E+04  0.7818609E-02  0.8763380E-01
       -2   -1    0    0    0  501  0.00000000000E+00  0.00000000000E+00  0.88409341576E+03  0.88409341576E+03  0.25500000920E-02 0. -1.
        2   -1    0    0  501    0  0.00000000000E+00  0.00000000000E+00 -0.81383056407E+03  0.81383056408E+03  0.25500000920E-02 0.  1.
    10030    2    1    2    0    0  0.00000000000E+00  0.00000000000E+00  0.70262851688E+02  0.16979239798E+04  0.16964695615E+04 0.  0.
        4    1    3    3  502    0  0.16516731695E+02 -0.40138110077E+03 -0.71258404642E+03  0.81802030940E+03  0.12699999809E+01 0.  1.
       -4    1    3    3    0  502 -0.16516731695E+02  0.40138110077E+03  0.78284689811E+03  0.87990367044E+03  0.12699999809E+01 0. -1.
</event>
<event>
 5   0  0.6564887E-05  0.1701565E+04  0.7818609E-02  0.8760472E-01
        1   -1    0    0  501    0  0.00000000000E+00  0.00000000000E+00  0.19646584698E+04  0.19646584698E+04  0.50400001928E-02 0. -1.
       -1   -1    0    0    0  501  0.00000000000E+00  0.00000000000E+00 -0.36842572797E+03  0.36842572800E+03  0.50400001928E-02 0.  1.
    10030    2    1    2    0    0  0.00000000000E+00  0.00000000000E+00  0.15962327418E+04  0.23330841978E+04  0.17015648409E+04 0.  0.
        4    1    3    3  502    0 -0.55397170080E+03 -0.20805393558E+03  0.16362611962E+04  0.17399779885E+04  0.12699999809E+01 0. -1.
       -4    1    3    3    0  502  0.55397170080E+03  0.20805393558E+03 -0.40028454412E+02  0.59310620926E+03  0.12699999809E+01 0.  1.
</event>
<event>
 5   0  0.1333546E-04  0.1702068E+04  0.7818609E-02  0.8760186E-01
       -2   -1    0    0    0  501  0.00000000000E+00  0.00000000000E+00  0.43740973222E+03  0.43740973223E+03  0.25500000920E-02 0. -1.
        2   -1    0    0  501    0  0.00000000000E+00  0.00000000000E+00 -0.16557896036E+04  0.16557896036E+04  0.25500000920E-02 0.  1.
    10030    2    1    2    0    0  0.00000000000E+00  0.00000000000E+00 -0.12183798714E+04  0.20931993359E+04  0.17020675511E+04 0.  0.
        5    1    3    3  502    0  0.44870339604E+03  0.57351073738E+03 -0.11508417650E+04  0.13618767057E+04  0.46999998093E+01 0. -1.
       -5    1    3    3    0  502 -0.44870339604E+03 -0.57351073738E+03 -0.67538106388E+02  0.73132263012E+03  0.46999998093E+01 0.  1.
</event>
<event>
 5   0  0.1255362E-04  0.1705211E+04  0.7818609E-02  0.8758398E-01
       -2   -1    0    0    0  501  0.00000000000E+00  0.00000000000E+00  0.61845541088E+03  0.61845541088E+03  0.25500000920E-02 0. -1.
        2   -1    0    0  501    0  0.00000000000E+00  0.00000000000E+00 -0.11754058483E+04  0.11754058483E+04  0.25500000920E-02 0.  1.
    10030    2    1    2    0    0  0.00000000000E+00  0.00000000000E+00 -0.55695043741E+03  0.17938612592E+04  0.17052109627E+04 0.  0.
        1    1    3    3  502    0  0.38160861808E+03 -0.34696406253E+03  0.43573616188E+03  0.67518530855E+03  0.50400001928E-02 0. -1.
       -1    1    3    3    0  502 -0.38160861808E+03  0.34696406253E+03 -0.99268659930E+03  0.11186759506E+04  0.50400001928E-02 0.  1.
</event>
<event>
 5   0  0.6564887E-05  0.1659654E+04  0.7818609E-02  0.8784716E-01
        1   -1    0    0  501    0  0.00000000000E+00  0.00000000000E+00  0.14170805500E+04  0.14170805500E+04  0.50400001928E-02 0. -1.
       -1   -1    0    0    0  501  0.00000000000E+00  0.00000000000E+00 -0.48593743457E+03  0.48593743460E+03  0.50400001928E-02 0.  1.
    10030    2    1    2    0    0  0.00000000000E+00  0.00000000000E+00  0.93114311546E+03  0.19030179846E+04  0.16596535628E+04 0.  0.
        4    1    3    3  502    0 -0.61392338179E+02 -0.41720411976E+03  0.12850612357E+04  0.13524837482E+04  0.12699999809E+01 0. -1.
       -4    1    3    3    0  502  0.61392338179E+02  0.41720411976E+03 -0.35391812026E+03  0.55053423643E+03  0.12699999809E+01 0.  1.
</event>
<event>
 5   0  0.6615842E-05  0.1681008E+04  0.7818609E-02  0.8772271E-01
       -1   -1    0    0    0  501  0.00000000000E+00  0.00000000000E+00  0.85282717669E+03  0.85282717670E+03  0.50400001928E-02 0.  1.
        1   -1    0    0  501    0  0.00000000000E+00  0.00000000000E+00 -0.82835879288E+03  0.82835879290E+03  0.50400001928E-02 0. -1.
    10030    2    1    2    0    0  0.00000000000E+00  0.00000000000E+00  0.24468383804E+02  0.16811859696E+04  0.16810079008E+04 0.  0.
        3    1    3    3  502    0  0.23632320979E+03  0.72221486731E+03  0.37144337685E+03  0.84582100143E+03  0.10100000352E+00 0.  1.
       -3    1    3    3    0  502 -0.23632320979E+03 -0.72221486731E+03 -0.34697499305E+03  0.83536496817E+03  0.10100000352E+00 0. -1.
</event>
<event>
 5   0  0.1285639E-04  0.1656679E+04  0.7818609E-02  0.8786465E-01
       -2   -1    0    0    0  501  0.00000000000E+00  0.00000000000E+00  0.56344561361E+03  0.56344561362E+03  0.25500000920E-02 0. -1.
        2   -1    0    0  501    0  0.00000000000E+00  0.00000000000E+00 -0.12177683441E+04  0.12177683441E+04  0.25500000920E-02 0.  1.
    10030    2    1    2    0    0  0.00000000000E+00  0.00000000000E+00 -0.65432273052E+03  0.17812139578E+04  0.16566788849E+04 0.  0.
        4    1    3    3  502    0  0.37276307051E+03  0.20020669622E+03 -0.10928085058E+04  0.11718647837E+04  0.12699999809E+01 0.  1.
       -4    1    3    3    0  502 -0.37276307051E+03 -0.20020669622E+03  0.43848577528E+03  0.60934917409E+03  0.12699999809E+01 0. -1.
</event>
<event>
 5   0  0.1393870E-04  0.1700778E+04  0.7818609E-02  0.8760920E-01
       -2   -1    0    0    0  501  0.00000000000E+00  0.00000000000E+00  0.15366855835E+04  0.15366855835E+04  0.25500000920E-02 0.  1.
        2   -1    0    0  501    0  0.00000000000E+00  0.00000000000E+00 -0.47059845374E+03  0.47059845375E+03  0.25500000920E-02 0. -1.
    10030    2    1    2    0    0  0.00000000000E+00  0.00000000000E+00  0.10660871298E+04  0.20072840372E+04  0.17007784800E+04 0.  0.
        3    1    3    3  502    0 -0.12097270638E+03 -0.80388589608E+03  0.23847432507E+03  0.84719356910E+03  0.10100000352E+00 0.  1.
       -3    1    3    3    0  502  0.12097270638E+03  0.80388589608E+03  0.82761280469E+03  0.11600904682E+04  0.10100000352E+00 0. -1.
</event>
<event>
 5   0  0.1269175E-04  0.1703810E+04  0.7818609E-02  0.8759194E-01
       -2   -1    0    0    0  501  0.00000000000E+00  0.00000000000E+00  0.10392363898E+04  0.10392363898E+04  0.25500000920E-02 0.  1.
        2   -1    0    0  501    0  0.00000000000E+00  0.00000000000E+00 -0.69834195296E+03  0.69834195296E+03  0.25500000920E-02 0. -1.
    10030    2    1    2    0    0  0.00000000000E+00  0.00000000000E+00  0.34089443688E+03  0.17375783428E+04  0.17038102830E+04 0.  0.
        2    1    3    3  502    0 -0.59395806024E+03 -0.11153561172E+03  0.78277706957E+03  0.98892179198E+03  0.25500000920E-02 0.  1.
       -2    1    3    3    0  502  0.59395806024E+03  0.11153561172E+03 -0.44188263269E+03  0.74865655082E+03  0.25500000920E-02 0. -1.
</event>
<event>
 5   0  0.1269175E-04  0.1705393E+04  0.7818609E-02  0.8758295E-01
        2   -1    0    0  501    0  0.00000000000E+00  0.00000000000E+00  0.75968067687E+03  0.75968067687E+03  0.25500000920E-02 0. -1.
       -2   -1    0    0    0  501  0.00000000000E+00  0.00000000000E+00 -0.95710101954E+03  0.95710101954E+03  0.25500000920E-02 0.  1.
    10030    2    1    2    0    0  0.00000000000E+00  0.00000000000E+00 -0.19742034268E+03  0.17167816964E+04  0.17053927998E+04 0.  0.
        2    1    3    3  502    0  0.28378978408E+03 -0.58984171889E+03 -0.64884045241E+03  0.92165276953E+03  0.25500000920E-02 0.  1.
       -2    1    3    3    0  502 -0.28378978408E+03  0.58984171889E+03  0.45142010974E+03  0.79512892689E+03  0.25500000920E-02 0. -1.
</event>
<event>
 5   0  0.1285639E-04  0.1699676E+04  0.7818609E-02  0.8761549E-01
       -2   -1    0    0    0  501  0.00000000000E+00  0.00000000000E+00  0.92922865801E+03  0.92922865802E+03  0.25500000920E-02 0.  1.
        2   -1    0    0  501    0  0.00000000000E+00  0.00000000000E+00 -0.77723069567E+03  0.77723069568E+03  0.25500000920E-02 0. -1.
    10030    2    1    2    0    0  0.00000000000E+00  0.00000000000E+00  0.15199796234E+03  0.17064593537E+04  0.16996764825E+04 0.  0.
        4    1    3    3  502    0  0.71412834653E+03  0.43283586625E+03  0.23441726141E+03  0.86734032984E+03  0.12699999809E+01 0. -1.
       -4    1    3    3    0  502 -0.71412834653E+03 -0.43283586625E+03 -0.82419299077E+02  0.83911902385E+03  0.12699999809E+01 0.  1.
</event>
<event>
 5   0  0.1333546E-04  0.1697504E+04  0.7818609E-02  0.8762789E-01
        2   -1    0    0  501    0  0.00000000000E+00  0.00000000000E+00  0.73648904675E+03  0.73648904675E+03  0.25500000920E-02 0. -1.
       -2   -1    0    0    0  501  0.00000000000E+00  0.00000000000E+00 -0.97812710511E+03  0.97812710512E+03  0.25500000920E-02 0.  1.
    10030    2    1    2    0    0  0.00000000000E+00  0.00000000000E+00 -0.24163805837E+03  0.17146161519E+04  0.16975039314E+04 0.  0.
        5    1    3    3  502    0 -0.63414840742E+03 -0.47969276229E+02 -0.68854604999E+03  0.93731691922E+03  0.46999998093E+01 0.  1.
       -5    1    3    3    0  502  0.63414840742E+03  0.47969276229E+02  0.44690799162E+03  0.77729923265E+03  0.46999998093E+01 0. -1.
</event>
<event>
 5   0  0.1333546E-04  0.1705801E+04  0.7818609E-02  0.8758063E-01
        2   -1    0    0  501    0  0.00000000000E+00  0.00000000000E+00  0.10209116300E+04  0.10209116300E+04  0.25500000920E-02 0. -1.
       -2   -1    0    0    0  501  0.00000000000E+00  0.00000000000E+00 -0.71253901992E+03  0.71253901993E+03  0.25500000920E-02 0.  1.
    10030    2    1    2    0    0  0.00000000000E+00  0.00000000000E+00  0.30837261011E+03  0.17334506500E+04  0.17058011283E+04 0.  0.
        5    1    3    3  502    0  0.59003445454E+03 -0.61445039185E+03  0.11195134485E+03  0.85921192683E+03  0.46999998093E+01 0. -1.
       -5    1    3    3    0  502 -0.59003445454E+03  0.61445039185E+03  0.19642126526E+03  0.87423872314E+03  0.46999998093E+01 0.  1.
</event>
<event>
 5   0  0.1393870E-04  0.1695912E+04  0.7818609E-02  0.8763699E-01
       -2   -1    0    0    0  501  0.00000000000E+00  0.00000000000E+00  0.49872600719E+03  0.49872600719E+03  0.25500000920E-02 0. -1.
        2   -1    0    0  501    0  0.00000000000E+00  0.00000000000E+00 -0.14417329624E+04  0.14417329624E+04  0.25500000920E-02 0.  1.
    10030    2    1    2    0    0  0.00000000000E+00  0.00000000000E+00 -0.94300695526E+03  0.19404589696E+04  0.16959124079E+04 0.  0.
        3    1    3    3  502    0  0.40870777815E+03  0.34260771086E+03  0.28280626291E+03  0.60365676008E+03  0.10100000352E+00 0. -1.
       -3    1    3    3    0  502 -0.40870777815E+03 -0.34260771086E+03 -0.12258132182E+04  0.13368022096E+04  0.10100000352E+00 0.  1.
</event>
<event>
 5   0  0.6601906E-05  0.1720701E+04  0.7818609E-02  0.8749645E-01
        1   -1    0    0  501    0  0.00000000000E+00  0.00000000000E+00  0.83416064788E+03  0.83416064789E+03  0.50400001928E-02 0. -1.
       -1   -1    0    0    0  501  0.00000000000E+00  0.00000000000E+00 -0.88736277352E+03  0.88736277354E+03  0.50400001928E-02 0.  1.
    10030    2    1    2    0    0  0.00000000000E+00  0.00000000000E+00 -0.53202125643E+02  0.17215234214E+04  0.17207011432E+04 0.  0.
        1    1    3    3  502    0  0.62417900209E+02 -0.55329952411E+03  0.62958334539E+03  0.84048292456E+03  0.50400001928E-02 0. -1.
       -1    1    3    3    0  502 -0.62417900209E+02  0.55329952411E+03 -0.68278547104E+03  0.88104049687E+03  0.50400001928E-02 0.  1.
</event>
<event>
 5   0  0.6601906E-05  0.1653563E+04  0.7818609E-02  0.8788301E-01
        1   -1    0    0  501    0  0.00000000000E+00  0.00000000000E+00  0.59214215549E+03  0.59214215551E+03  0.50400001928E-02 0. -1.
       -1   -1    0    0    0  501  0.00000000000E+00  0.00000000000E+00 -0.11543983859E+04  0.11543983859E+04  0.50400001928E-02 0.  1.
    10030    2    1    2    0    0  0.00000000000E+00  0.00000000000E+00 -0.56225623037E+03  0.17465405414E+04  0.16535633626E+04 0.  0.
        1    1    3    3  502    0 -0.69553746905E+03  0.73504685070E+02 -0.74681900025E+03  0.10231881199E+04  0.50400001928E-02 0.  1.
       -1    1    3    3    0  502  0.69553746905E+03 -0.73504685070E+02  0.18456276988E+03  0.72335242146E+03  0.50400001928E-02 0. -1.
</event>
<event>
 5   0  0.1269175E-04  0.1704988E+04  0.7818609E-02  0.8758524E-01
        2   -1    0    0  501    0  0.00000000000E+00  0.00000000000E+00  0.95156175037E+03  0.95156175037E+03  0.25500000920E-02 0. -1.
       -2   -1    0    0    0  501  0.00000000000E+00  0.00000000000E+00 -0.76374059008E+03  0.76374059009E+03  0.25500000920E-02 0.  1.
    10030    2    1    2    0    0  0.00000000000E+00  0.00000000000E+00  0.18782116029E+03  0.17153023405E+04  0.17049883668E+04 0.  0.
        2    1    3    3  502    0  0.22178261771E+03  0.73336359965E+03 -0.28216436322E+03  0.81647193870E+03  0.25500000920E-02 0.  1.
       -2    1    3    3    0  502 -0.22178261771E+03 -0.73336359965E+03  0.46998552351E+03  0.89883040176E+03  0.25500000920E-02 0. -1.
</event>
<event>
 5   0  0.1285639E-04  0.1703483E+04  0.7818609E-02  0.8759380E-01
       -2   -1    0    0    0  501  0.00000000000E+00  0.00000000000E+00  0.81765351374E+03  0.81765351374E+03  0.25500000920E-02 0.  1.
        2   -1    0    0  501    0  0.00000000000E+00  0.00000000000E+00 -0.88725068993E+03  0.88725068994E+03  0.25500000920E-02 0. -1.
    10030    2    1    2    0    0  0.00000000000E+00  0.00000000000E+00 -0.69597176195E+02  0.17049042037E+04  0.17034830721E+04 0.  0.
        4    1    3    3  502    0 -0.83316209612E+03  0.64687193526E+02  0.13001581062E+03  0.84572408937E+03  0.12699999809E+01 0. -1.
       -4    1    3    3    0  502  0.83316209612E+03 -0.64687193526E+02 -0.19961298682E+03  0.85918011431E+03  0.12699999809E+01 0.  1.
</event>
<event>
 5   0  0.6834837E-05  0.1717631E+04  0.7818609E-02  0.8751372E-01
       -1   -1    0    0    0  501  0.00000000000E+00  0.00000000000E+00  0.46005879655E+03  0.46005879657E+03  0.50400001928E-02 0. -1.
        1   -1    0    0  501    0  0.00000000000E+00  0.00000000000E+00 -0.16031946461E+04  0.16031946461E+04  0.50400001928E-02 0.  1.
    10030    2    1    2    0    0  0.00000000000E+00  0.00000000000E+00 -0.11431358495E+04  0.20632534427E+04  0.17176306932E+04 0.  0.
        5    1    3    3  502    0 -0.71092595456E+03  0.42790142082E+03 -0.30559485929E+03  0.88426559745E+03  0.46999998093E+01 0. -1.
       -5    1    3    3    0  502  0.71092595456E+03 -0.42790142082E+03 -0.83754099024E+03  0.11789878452E+04  0.46999998093E+01 0.  1.
</event>
<event>
 5   0  0.1255362E-04  0.1702906E+04  0.7818609E-02  0.8759708E-01
       -2   -1    0    0    0  501  0.00000000000E+00  0.00000000000E+00  0.60899281603E+03  0.60899281604E+03  0.25500000920E-02 0.  1.
        2   -1    0    0  501    0  0.00000000000E+00  0.00000000000E+00 -0.11904452188E+04  0.11904452188E+04  0.25500000920E-02 0. -1.
    10030    2    1    2    0    0  0.00000000000E+00  0.00000000000E+00 -0.58145240274E+03  0.17994380348E+04  0.17029064403E+04 0.  0.
        1    1    3    3  502    0  0.92056239340E+02  0.48660657929E+03 -0.10226005439E+04  0.11362095699E+04  0.50400001928E-02 0. -1.
       -1    1    3    3    0  502 -0.92056239340E+02 -0.48660657929E+03  0.44114814118E+03  0.66322846494E+03  0.50400001928E-02 0.  1.
</event>
<event>
 5   0  0.6834837E-05  0.1699762E+04  0.7818609E-02  0.8761500E-01
       -1   -1    0    0    0  501  0.00000000000E+00  0.00000000000E+00  0.42391813017E+03  0.42391813020E+03  0.50400001928E-02 0.  1.
        1   -1    0    0  501    0  0.00000000000E+00  0.00000000000E+00 -0.17038614059E+04  0.17038614059E+04  0.50400001928E-02 0. -1.
    10030    2    1    2    0    0  0.00000000000E+00  0.00000000000E+00 -0.12799432757E+04  0.21277795361E+04  0.16997620319E+04 0.  0.
        5    1    3    3  502    0 -0.20451450098E+03 -0.23118562877E+03 -0.16311988144E+04  0.16601519925E+04  0.46999998093E+01 0. -1.
       -5    1    3    3    0  502  0.20451450098E+03  0.23118562877E+03  0.35125553870E+03  0.46762754359E+03  0.46999998093E+01 0.  1.
</event>
<event>
 5   0  0.6564887E-05  0.1701646E+04  0.7818609E-02  0.8760426E-01
       -1   -1    0    0    0  501  0.00000000000E+00  0.00000000000E+00  0.11426592127E+04  0.11426592127E+04  0.50400001928E-02 0. -1.
        1   -1    0    0  501    0  0.00000000000E+00  0.00000000000E+00 -0.63352217896E+03  0.63352217898E+03  0.50400001928E-02 0.  1.
    10030    2    1    2    0    0  0.00000000000E+00  0.00000000000E+00  0.50913703371E+03  0.17761813917E+04  0.17016462079E+04 0.  0.
        4    1    3    3  502    0  0.21453969898E+03  0.51348239262E+03  0.92634795325E+03  0.10806542432E+04  0.12699999809E+01 0. -1.
       -4    1    3    3    0  502 -0.21453969898E+03 -0.51348239262E+03 -0.41721091953E+03  0.69552714847E+03  0.12699999809E+01 0.  1.
</event>
<event>
 5   0  0.6601906E-05  0.1696356E+04  0.7818609E-02  0.8763446E-01
       -1   -1    0    0    0  501  0.00000000000E+00  0.00000000000E+00  0.29906315751E+03  0.29906315755E+03  0.50400001928E-02 0.  1.
        1   -1    0    0  501    0  0.00000000000E+00  0.00000000000E+00 -0.24055308211E+04  0.24055308211E+04  0.50400001928E-02 0. -1.
    10030    2    1    2    0    0  0.00000000000E+00  0.00000000000E+00 -0.21064676636E+04  0.27045939786E+04  0.16963556737E+04 0.  0.
        1    1    3    3  502    0 -0.20392386451E+02  0.78216700868E+03 -0.53120823500E+03  0.94571838718E+03  0.50400001928E-02 0.  1.
       -1    1    3    3    0  502  0.20392386451E+02 -0.78216700868E+03 -0.15752594286E+04  0.17588755914E+04  0.50400001928E-02 0. -1.
</event>
<event>
 5   0  0.6601906E-05  0.1699833E+04  0.7818609E-02  0.8761460E-01
        1   -1    0    0  501    0  0.00000000000E+00  0.00000000000E+00  0.65490050551E+03  0.65490050553E+03  0.50400001928E-02 0. -1.
       -1   -1    0    0    0  501  0.00000000000E+00  0.00000000000E+00 -0.11030039668E+04  0.11030039668E+04  0.50400001928E-02 0.  1.
    10030    2    1    2    0    0  0.00000000000E+00  0.00000000000E+00 -0.44810346131E+03  0.17579044724E+04  0.16998327629E+04 0.  0.
        1    1    3    3  502    0 -0.44004003070E+03  0.60822638131E+02  0.52528726962E+03  0.68793992294E+03  0.50400001928E-02 0. -1.
       -1    1    3    3    0  502  0.44004003070E+03 -0.60822638131E+02 -0.97339073093E+03  0.10699645494E+04  0.50400001928E-02 0.  1.
</event>
<event>
 5   0  0.6601906E-05  0.1704895E+04  0.7818609E-02  0.8758577E-01
       -1   -1    0    0    0  501  0.00000000000E+00  0.00000000000E+00  0.63683847715E+03  0.63683847717E+03  0.50400001928E-02 0. -1.
        1   -1    0    0  501    0  0.00000000000E+00  0.00000000000E+00 -0.11410540215E+04  0.11410540215E+04  0.50400001928E-02 0.  1.
    10030    2    1    2    0    0  0.00000000000E+00  0.00000000000E+00 -0.50421554437E+03  0.17778924987E+04  0.17048954284E+04 0.  0.
        1    1    3    3  502    0 -0.13021499890E+03 -0.68112033595E+03 -0.76910300777E+03  0.10355676195E+04  0.50400001928E-02 0. -1.
       -1    1    3    3    0  502  0.13021499890E+03  0.68112033595E+03  0.26488746340E+03  0.74232487919E+03  0.50400001928E-02 0.  1.
</event>
<event>
 5   0  0.6539134E-05  0.1701208E+04  0.7818609E-02  0.8760675E-01
        1   -1    0    0  501    0  0.00000000000E+00  0.00000000000E+00  0.16161287386E+04  0.16161287386E+04  0.50400001928E-02 0.  1.
       -1   -1    0    0    0  501  0.00000000000E+00  0.00000000000E+00 -0.44769178212E+03  0.44769178214E+03  0.50400001928E-02 0. -1.
    10030    2    1    2    0    0  0.00000000000E+00  0.00000000000E+00  0.11684369564E+04  0.20638205207E+04  0.17012084589E+04 0.  0.
        2    1    3    3  502    0  0.79952512846E+03  0.16242825773E+03  0.87614218850E+03  0.11971835717E+04  0.25500000920E-02 0. -1.
       -2    1    3    3    0  502 -0.79952512846E+03 -0.16242825773E+03  0.29229476794E+03  0.86663694897E+03  0.25500000920E-02 0.  1.
</event>
<event>
 5   0  0.6834837E-05  0.1699758E+04  0.7818609E-02  0.8761502E-01
        1   -1    0    0  501    0  0.00000000000E+00  0.00000000000E+00  0.76562762097E+03  0.76562762098E+03  0.50400001928E-02 0.  1.
       -1   -1    0    0    0  501  0.00000000000E+00  0.00000000000E+00 -0.94340202705E+03  0.94340202707E+03  0.50400001928E-02 0. -1.
    10030    2    1    2    0    0  0.00000000000E+00  0.00000000000E+00 -0.17777440608E+03  0.17090296481E+04  0.16997583941E+04 0.  0.
        5    1    3    3  502    0  0.19678513532E+03  0.80972864957E+03 -0.25679413581E+03  0.87198061538E+03  0.46999998093E+01 0. -1.
       -5    1    3    3    0  502 -0.19678513532E+03 -0.80972864957E+03  0.79019729725E+02  0.83704903267E+03  0.46999998093E+01 0.  1.
</event>
<event>
 5   0  0.1393870E-04  0.1698764E+04  0.7818609E-02  0.8762070E-01
        2   -1    0    0  501    0  0.00000000000E+00  0.00000000000E+00  0.14241252416E+04  0.14241252416E+04  0.25500000920E-02 0. -1.
       -2   -1    0    0    0  501  0.00000000000E+00  0.00000000000E+00 -0.50659133445E+03  0.50659133445E+03  0.25500000920E-02 0.  1.
    10030    2    1    2    0    0  0.00000000000E+00  0.00000000000E+00  0.91753390711E+03  0.19307165760E+04  0.16987636758E+04 0.  0.
        3    1    3    3  502    0  0.40639726209E+03 -0.67170779826E+03  0.82722298335E+03  0.11404595456E+04  0.10100000352E+00 0. -1.
       -3    1    3    3    0  502 -0.40639726209E+03  0.67170779826E+03  0.90310923761E+02  0.79025703036E+03  0.10100000352E+00 0.  1.
</event>
<event>
 5   0  0.6615842E-05  0.1742977E+04  0.7818609E-02  0.8737226E-01
        1   -1    0    0  501    0  0.00000000000E+00  0.00000000000E+00  0.10776328074E+04  0.10776328074E+04  0.50400001928E-02 0. -1.
       -1   -1    0    0    0  501  0.00000000000E+00  0.00000000000E+00 -0.70477792451E+03  0.70477792453E+03  0.50400001928E-02 0.  1.
    10030    2    1    2    0    0  0.00000000000E+00  0.00000000000E+00  0.37285488288E+03  0.17824107319E+04  0.17429765499E+04 0.  0.
        3    1    3    3  502    0 -0.65653148000E+03 -0.36277500676E+03  0.64014619089E+03  0.98611685194E+03  0.10100000352E+00 0. -1.
       -3    1    3    3    0  502  0.65653148000E+03  0.36277500676E+03 -0.26729130802E+03  0.79629387999E+03  0.10100000352E+00 0.  1.
</event>
<event>
 5   0  0.6539134E-05  0.1750766E+04  0.7818609E-02  0.8732929E-01
        1   -1    0    0  501    0  0.00000000000E+00  0.00000000000E+00  0.67573928224E+03  0.67573928225E+03  0.50400001928E-02 0.  1.
       -1   -1    0    0    0  501  0.00000000000E+00  0.00000000000E+00 -0.11340110389E+04  0.11340110389E+04  0.50400001928E-02 0. -1.
    10030    2    1    2    0    0  0.00000000000E+00  0.00000000000E+00 -0.45827175662E+03  0.18097503211E+04  0.17507664670E+04 0.  0.
        2    1    3    3  502    0  0.52742973243E+03 -0.44370629135E+03  0.32871069296E+03  0.76361516179E+03  0.25500000920E-02 0.  1.
       -2    1    3    3    0  502 -0.52742973243E+03  0.44370629135E+03 -0.78698244958E+03  0.10461351593E+04  0.25500000920E-02 0. -1.
</event>
<event>
 5   0  0.1333546E-04  0.1698978E+04  0.7818609E-02  0.8761948E-01
       -2   -1    0    0    0  501  0.00000000000E+00  0.00000000000E+00  0.36874622260E+03  0.36874622261E+03  0.25500000920E-02 0. -1.
        2   -1    0    0  501    0  0.00000000000E+00  0.00000000000E+00 -0.19569859110E+04  0.19569859110E+04  0.25500000920E-02 0.  1.
    10030    2    1    2    0    0  0.00000000000E+00  0.00000000000E+00 -0.15882396884E+04  0.23257321337E+04  0.16989775306E+04 0.  0.
        5    1    3    3  502    0 -0.47336255287E+03  0.84112056152E+02  0.16456265006E+03  0.50818293974E+03  0.46999998093E+01 0. -1.
       -5    1    3    3    0  502  0.47336255287E+03 -0.84112056152E+02 -0.17528023385E+04  0.18175491939E+04  0.46999998093E+01 0.  1.
</event>
<event>
 5   0  0.1393870E-04  0.1702579E+04  0.7818609E-02  0.8759895E-01
       -2   -1    0    0    0  501  0.00000000000E+00  0.00000000000E+00  0.79610731127E+03  0.79610731127E+03  0.25500000920E-02 0.  1.
        2   -1    0    0  501    0  0.00000000000E+00  0.00000000000E+00 -0.91029682317E+03  0.91029682317E+03  0.25500000920E-02 0. -1.
    10030    2    1    2    0    0  0.00000000000E+00  0.00000000000E+00 -0.11418951190E+03  0.17064041344E+04  0.17025791686E+04 0.  0.
        3    1    3    3  502    0  0.86395925639E+02 -0.19338845369E+03 -0.88346549805E+03  0.90850131890E+03  0.10100000352E+00 0. -1.
       -3    1    3    3    0  502 -0.86395925639E+02  0.19338845369E+03  0.76927598615E+03  0.79790281555E+03  0.10100000352E+00 0.  1.
</event>
<event>
 5   0  0.6601906E-05  0.1702839E+04  0.7818609E-02  0.8759747E-01
        1   -1    0    0  501    0  0.00000000000E+00  0.00000000000E+00  0.19441276120E+04  0.19441276120E+04  0.50400001928E-02 0.  1.
       -1   -1    0    0    0  501  0.00000000000E+00  0.00000000000E+00 -0.37287421570E+03  0.37287421573E+03  0.50400001928E-02 0. -1.
    10030    2    1    2    0    0  0.00000000000E+00  0.00000000000E+00  0.15712533963E+04  0.23170018277E+04  0.17028388750E+04 0.  0.
        1    1    3    3  502    0 -0.98267607829E+02  0.72984299169E+02 -0.36083920646E+03  0.38103564612E+03  0.50400001928E-02 0. -1.
       -1    1    3    3    0  502  0.98267607829E+02 -0.72984299169E+02  0.19320926027E+04  0.19359661816E+04  0.50400001928E-02 0.  1.
</event>
<event>
 5   0  0.1285639E-04  0.1697737E+04  0.7818609E-02  0.8762656E-01
        2   -1    0    0  501    0  0.00000000000E+00  0.00000000000E+00  0.13944721721E+04  0.13944721721E+04  0.25500000920E-02 0.  1.
       -2   -1    0    0    0  501  0.00000000000E+00  0.00000000000E+00 -0.51673895246E+03  0.51673895247E+03  0.25500000920E-02 0. -1.
    10030    2    1    2    0    0  0.00000000000E+00  0.00000000000E+00  0.87773321959E+03  0.19112111245E+04  0.16977374231E+04 0.  0.
        4    1    3    3  502    0 -0.34740804289E+03  0.48776773734E+03  0.11161532196E+04  0.12666528082E+04  0.12699999809E+01 0.  1.
       -4    1    3    3    0  502  0.34740804289E+03 -0.48776773734E+03 -0.23842000004E+03  0.64455831635E+03  0.12699999809E+01 0. -1.
</event>
<event>
 5   0  0.1255362E-04  0.1703758E+04  0.7818609E-02  0.8759224E-01
        2   -1    0    0  501    0  0.00000000000E+00  0.00000000000E+00  0.14851454018E+04  0.14851454018E+04  0.25500000920E-02 0. -1.
       -2   -1    0    0    0  501  0.00000000000E+00  0.00000000000E+00 -0.48863769462E+03  0.48863769463E+03  0.25500000920E-02 0.  1.
    10030    2    1    2    0    0  0.00000000000E+00  0.00000000000E+00  0.99650770716E+03  0.19737830964E+04  0.17037582285E+04 0.  0.
        1    1    3    3  502    0  0.28514746235E+03 -0.43910460104E+03 -0.28024312781E+03  0.59385026450E+03  0.50400001928E-02 0.  1.
       -1    1    3    3    0  502 -0.28514746235E+03  0.43910460104E+03  0.12767508350E+04  0.13799328319E+04  0.50400001928E-02 0. -1.
</event>
<event>
 5   0  0.1393870E-04  0.1696620E+04  0.7818609E-02  0.8763295E-01
        2   -1    0    0  501    0  0.00000000000E+00  0.00000000000E+00  0.18880783012E+04  0.18880783012E+04  0.25500000920E-02 0. -1.
       -2   -1    0    0    0  501  0.00000000000E+00  0.00000000000E+00 -0.38114387904E+03  0.38114387905E+03  0.25500000920E-02 0.  1.
    10030    2    1    2    0    0  0.00000000000E+00  0.00000000000E+00  0.15069344221E+04  0.22692221802E+04  0.16966195657E+04 0.  0.
        3    1    3    3  502    0 -0.49568312325E+03  0.25838657413E+03 -0.99981224673E+02  0.56785705583E+03  0.10100000352E+00 0. -1.
       -3    1    3    3    0  502  0.49568312325E+03 -0.25838657413E+03  0.16069156468E+04  0.17013651244E+04  0.10100000352E+00 0.  1.
</event>
<event>
 5   0  0.6834837E-05  0.1699304E+04  0.7818609E-02  0.8761761E-01
       -1   -1    0    0    0  501  0.00000000000E+00  0.00000000000E+00  0.96747343191E+03  0.96747343192E+03  0.50400001928E-02 0. -1.
        1   -1    0    0  501    0  0.00000000000E+00  0.00000000000E+00 -0.74617908378E+03  0.74617908379E+03  0.50400001928E-02 0.  1.
    10030    2    1    2    0    0  0.00000000000E+00  0.00000000000E+00  0.22129434813E+03  0.17136525157E+04  0.16993039034E+04 0.  0.
        5    1    3    3  502    0 -0.41136560299E+03  0.48108197792E+02  0.85876724793E+03  0.95343554273E+03  0.46999998093E+01 0. -1.
       -5    1    3    3    0  502  0.41136560299E+03 -0.48108197792E+02 -0.63747289980E+03  0.76021697298E+03  0.46999998093E+01 0.  1.
</event>
<event>
 5   0  0.6539134E-05  0.1691129E+04  0.7818609E-02  0.8766440E-01
        1   -1    0    0  501    0  0.00000000000E+00  0.00000000000E+00  0.10479460017E+04  0.10479460017E+04  0.50400001928E-02 0.  1.
       -1   -1    0    0    0  501  0.00000000000E+00  0.00000000000E+00 -0.68226694095E+03  0.68226694097E+03  0.50400001928E-02 0. -1.
    10030    2    1    2    0    0  0.00000000000E+00  0.00000000000E+00  0.36567906077E+03  0.17302129427E+04  0.16911285142E+04 0.  0.
        2    1    3    3  502    0 -0.14839072497E+03 -0.13400788962E+03 -0.65773291501E+03  0.68745218687E+03  0.25500000920E-02 0. -1.
       -2    1    3    3    0  502  0.14839072497E+03  0.13400788962E+03  0.10234119758E+04  0.10427607558E+04  0.25500000920E-02 0.  1.
</event>
<event>
 5   0  0.6601906E-05  0.1695714E+04  0.7818609E-02  0.8763813E-01
        1   -1    0    0  501    0  0.00000000000E+00  0.00000000000E+00  0.13821654422E+04  0.13821654422E+04  0.50400001928E-02 0. -1.
       -1   -1    0    0    0  501  0.00000000000E+00  0.00000000000E+00 -0.52009789912E+03  0.52009789915E+03  0.50400001928E-02 0.  1.
    10030    2    1    2    0    0  0.00000000000E+00  0.00000000000E+00  0.86206754310E+03  0.19022633414E+04  0.16957138235E+04 0.  0.
        1    1    3    3  502    0  0.78023237530E+03 -0.19229321771E+03  0.73438266208E+03  0.10886032957E+04  0.50400001928E-02 0. -1.
       -1    1    3    3    0  502 -0.78023237530E+03  0.19229321771E+03  0.12768488102E+03  0.81366004567E+03  0.50400001928E-02 0.  1.
</event>
<event>
 5   0  0.1269175E-04  0.1692847E+04  0.7818609E-02  0.8765454E-01
       -2   -1    0    0    0  501  0.00000000000E+00  0.00000000000E+00  0.14110896849E+04  0.14110896849E+04  0.25500000920E-02 0. -1.
        2   -1    0    0  501    0  0.00000000000E+00  0.00000000000E+00 -0.50771624164E+03  0.50771624165E+03  0.25500000920E-02 0.  1.
    10030    2    1    2    0    0  0.00000000000E+00  0.00000000000E+00  0.90337344323E+03  0.19188059265E+04  0.16928474845E+04 0.  0.
        2    1    3    3  502    0  0.80157476311E+03  0.16226083648E+03  0.69893695873E+03  0.10758083250E+04  0.25500000920E-02 0. -1.
       -2    1    3    3    0  502 -0.80157476311E+03 -0.16226083648E+03  0.20443648449E+03  0.84299760148E+03  0.25500000920E-02 0.  1.
</event>
<event>
 5   0  0.1285639E-04  0.1698422E+04  0.7818609E-02  0.8762265E-01
       -2   -1    0    0    0  501  0.00000000000E+00  0.00000000000E+00  0.42155788788E+03  0.42155788788E+03  0.25500000920E-02 0. -1.
        2   -1    0    0  501    0  0.00000000000E+00  0.00000000000E+00 -0.17107001113E+04  0.17107001113E+04  0.25500000920E-02 0.  1.
    10030    2    1    2    0    0  0.00000000000E+00  0.00000000000E+00 -0.12891422234E+04  0.21322579991E+04  0.16984217682E+04 0.  0.
        4    1    3    3  502    0 -0.12786310156E+02 -0.13048875952E+03 -0.16979152068E+04  0.17029704837E+04  0.12699999809E+01 0.  1.
       -4    1    3    3    0  502  0.12786310156E+02  0.13048875952E+03  0.40877298337E+03  0.42928751545E+03  0.12699999809E+01 0. -1.
</event>
<event>
 5   0  0.6539134E-05  0.1722520E+04  0.7818609E-02  0.8748624E-01
       -1   -1    0    0    0  501  0.00000000000E+00  0.00000000000E+00  0.38407601527E+03  0.38407601530E+03  0.50400001928E-02 0.  1.
        1   -1    0    0  501    0  0.00000000000E+00  0.00000000000E+00 -0.19313071034E+04  0.19313071034E+04  0.50400001928E-02 0. -1.
    10030    2    1    2    0    0  0.00000000000E+00  0.00000000000E+00 -0.15472310881E+04  0.23153831187E+04  0.17225199407E+04 0.  0.
        2    1    3    3  502    0  0.32891666382E+03 -0.89276909061E+02  0.28957525221E+03  0.44722518369E+03  0.25500000920E-02 0.  1.
       -2    1    3    3    0  502 -0.32891666382E+03  0.89276909061E+02 -0.18368063403E+04  0.18681579350E+04  0.25500000920E-02 0. -1.
</event>
<event>
 5   0  0.6834837E-05  0.1708141E+04  0.7818609E-02  0.8756735E-01
        1   -1    0    0  501    0  0.00000000000E+00  0.00000000000E+00  0.73408671126E+03  0.73408671128E+03  0.50400001928E-02 0. -1.
       -1   -1    0    0    0  501  0.00000000000E+00  0.00000000000E+00 -0.99366480540E+03  0.99366480541E+03  0.50400001928E-02 0.  1.
    10030    2    1    2    0    0  0.00000000000E+00  0.00000000000E+00 -0.25957809414E+03  0.17277515167E+04  0.17081406606E+04 0.  0.
        5    1    3    3  502    0  0.73760387989E+03  0.38018254059E+03 -0.33413769217E+03  0.89457718232E+03  0.46999998093E+01 0.  1.
       -5    1    3    3    0  502 -0.73760387989E+03 -0.38018254059E+03  0.74559598033E+02  0.83317433437E+03  0.46999998093E+01 0. -1.
</event>
<event>
 5   0  0.6539134E-05  0.1697158E+04  0.7818609E-02  0.8762987E-01
        1   -1    0    0  501    0  0.00000000000E+00  0.00000000000E+00  0.70493337174E+03  0.70493337176E+03  0.50400001928E-02 0.  1.
       -1   -1    0    0    0  501  0.00000000000E+00  0.00000000000E+00 -0.10214950343E+04  0.10214950343E+04  0.50400001928E-02 0. -1.
    10030    2    1    2    0    0  0.00000000000E+00  0.00000000000E+00 -0.31656166254E+03  0.17264284060E+04  0.16971575516E+04 0.  0.
        2    1    3    3  502    0 -0.48511788587E+03 -0.26434773159E+03  0.49692956591E+03  0.74307340140E+03  0.25500000920E-02 0.  1.
       -2    1    3    3    0  502  0.48511788587E+03  0.26434773159E+03 -0.81349122845E+03  0.98335500464E+03  0.25500000920E-02 0. -1.
</event>
<event>
 5   0  0.1269175E-04  0.1701416E+04  0.7818609E-02  0.8760557E-01
        2   -1    0    0  501    0  0.00000000000E+00  0.00000000000E+00  0.10476994869E+04  0.10476994869E+04  0.25500000920E-02 0. -1.
       -2   -1    0    0    0  501  0.00000000000E+00  0.00000000000E+00 -0.69075575932E+03  0.69075575933E+03  0.25500000920E-02 0.  1.
    10030    2    1    2    0    0  0.00000000000E+00  0.00000000000E+00  0.35694372754E+03  0.17384552462E+04  0.17014164153E+04 0.  0.
        2    1    3    3  502    0  0.17452584323E+03 -0.19631832790E+03 -0.64828059007E+03  0.69947686116E+03  0.25500000920E-02 0.  1.
       -2    1    3    3    0  502 -0.17452584323E+03  0.19631832790E+03  0.10052243176E+04  0.10389783850E+04  0.25500000920E-02 0. -1.
</event>
<event>
 5   0  0.1393870E-04  0.1680933E+04  0.7818609E-02  0.8772314E-01
       -2   -1    0    0    0  501  0.00000000000E+00  0.00000000000E+00  0.10152892688E+04  0.10152892688E+04  0.25500000920E-02 0. -1.
        2   -1    0    0  501    0  0.00000000000E+00  0.00000000000E+00 -0.69574652580E+03  0.69574652581E+03  0.25500000920E-02 0.  1.
    10030    2    1    2    0    0  0.00000000000E+00  0.00000000000E+00  0.31954274296E+03  0.17110357946E+04  0.16809330521E+04 0.  0.
        3    1    3    3  502    0  0.48969588420E+02 -0.75537088320E+03  0.53155294552E+03  0.92494958559E+03  0.10100000352E+00 0. -1.
       -3    1    3    3    0  502 -0.48969588420E+02  0.75537088320E+03 -0.21201020256E+03  0.78608620899E+03  0.10100000352E+00 0.  1.
</event>
<event>
 5   0  0.1269175E-04  0.1698948E+04  0.7818609E-02  0.8761965E-01
        2   -1    0    0  501    0  0.00000000000E+00  0.00000000000E+00  0.17588323451E+04  0.17588323451E+04  0.25500000920E-02 0. -1.
       -2   -1    0    0    0  501  0.00000000000E+00  0.00000000000E+00 -0.41027570003E+03  0.41027570003E+03  0.25500000920E-02 0.  1.
    10030    2    1    2    0    0  0.00000000000E+00  0.00000000000E+00  0.13485566450E+04  0.21691080451E+04  0.16989481118E+04 0.  0.
        2    1    3    3  502    0 -0.70618577044E+03  0.40268614211E+03  0.35959024571E+03  0.88890922834E+03  0.25500000920E-02 0.  1.
       -2    1    3    3    0  502  0.70618577044E+03 -0.40268614211E+03  0.98896639932E+03  0.12801988167E+04  0.25500000920E-02 0. -1.
</event>
<event>
 5   0  0.6615842E-05  0.1674504E+04  0.7818609E-02  0.8776041E-01
       -1   -1    0    0    0  501  0.00000000000E+00  0.00000000000E+00  0.27702401624E+04  0.27702401624E+04  0.50400001928E-02 0.  1.
        1   -1    0    0  501    0  0.00000000000E+00  0.00000000000E+00 -0.25304347165E+03  0.25304347170E+03  0.50400001928E-02 0. -1.
    10030    2    1    2    0    0  0.00000000000E+00  0.00000000000E+00  0.25171966908E+04  0.30232836341E+04  0.16745043303E+04 0.  0.
        3    1    3    3  502    0  0.74337566235E+03  0.23717858108E+03  0.71058208593E+03  0.10553615332E+04  0.10100000352E+00 0. -1.
       -3    1    3    3    0  502 -0.74337566235E+03 -0.23717858108E+03  0.18066146049E+04  0.19679221009E+04  0.10100000352E+00 0.  1.
</event>
<event>
 5   0  0.6834837E-05  0.1699614E+04  0.7818609E-02  0.8761585E-01
       -1   -1    0    0    0  501  0.00000000000E+00  0.00000000000E+00  0.54412082539E+03  0.54412082541E+03  0.50400001928E-02 0.  1.
        1   -1    0    0  501    0  0.00000000000E+00  0.00000000000E+00 -0.13272268851E+04  0.13272268851E+04  0.50400001928E-02 0. -1.
    10030    2    1    2    0    0  0.00000000000E+00  0.00000000000E+00 -0.78310605971E+03  0.18713477105E+04  0.16996138246E+04 0.  0.
        5    1    3    3  502    0 -0.57992923847E+03 -0.57293911925E+03 -0.65574033127E+03  0.10462287647E+04  0.46999998093E+01 0. -1.
       -5    1    3    3    0  502  0.57992923847E+03  0.57293911925E+03 -0.12736572844E+03  0.82511894584E+03  0.46999998093E+01 0.  1.
</event>
<event>
 5   0  0.1333546E-04  0.1692258E+04  0.7818609E-02  0.8765793E-01
       -2   -1    0    0    0  501  0.00000000000E+00  0.00000000000E+00  0.48203086684E+03  0.48203086685E+03  0.25500000920E-02 0. -1.
        2   -1    0    0  501    0  0.00000000000E+00  0.00000000000E+00 -0.14852448949E+04  0.14852448949E+04  0.25500000920E-02 0.  1.
    10030    2    1    2    0    0  0.00000000000E+00  0.00000000000E+00 -0.10032140280E+04  0.19672757617E+04  0.16922575267E+04 0.  0.
        5    1    3    3  502    0 -0.56794640820E+03  0.44401316471E+03  0.13324384430E+02  0.72104815529E+03  0.46999998093E+01 0. -1.
       -5    1    3    3    0  502  0.56794640820E+03 -0.44401316471E+03 -0.10165384124E+04  0.12462276064E+04  0.46999998093E+01 0.  1.
</event>
<event>
 5   0  0.6834837E-05  0.1700143E+04  0.7818609E-02  0.8761283E-01
        1   -1    0    0  501    0  0.00000000000E+00  0.00000000000E+00  0.13180879279E+04  0.13180879279E+04  0.50400001928E-02 0. -1.
       -1   -1    0    0    0  501  0.00000000000E+00  0.00000000000E+00 -0.54823494667E+03  0.54823494669E+03  0.50400001928E-02 0.  1.
    10030    2    1    2    0    0  0.00000000000E+00  0.00000000000E+00  0.76985298126E+03  0.18663228746E+04  0.17001433644E+04 0.  0.
        5    1    3    3  502    0 -0.24067105392E+02  0.74126031466E+03  0.84092494054E+03  0.11212595263E+04  0.46999998093E+01 0. -1.
       -5    1    3    3    0  502  0.24067105392E+02 -0.74126031466E+03 -0.71071959286E+02  0.74506334834E+03  0.46999998093E+01 0.  1.
</event>
<event>
 5   0  0.6539134E-05  0.1666479E+04  0.7818609E-02  0.8780717E-01
        1   -1    0    0  501    0  0.00000000000E+00  0.00000000000E+00  0.12328117515E+04  0.12328117515E+04  0.50400001928E-02 0.  1.
       -1   -1    0    0    0  501  0.00000000000E+00  0.00000000000E+00 -0.56317457806E+03  0.56317457808E+03  0.50400001928E-02 0. -1.
    10030    2    1    2    0    0  0.00000000000E+00  0.00000000000E+00  0.66963717347E+03  0.17959863296E+04  0.16664792084E+04 0.  0.
        2    1    3    3  502    0 -0.51326656152E+02  0.10489070997E+03  0.12239492956E+04  0.12295073667E+04  0.25500000920E-02 0.  1.
       -2    1    3    3    0  502  0.51326656152E+02 -0.10489070997E+03 -0.55431212212E+03  0.56647896289E+03  0.25500000920E-02 0. -1.
</event>
<event>
 5   0  0.1333546E-04  0.1675080E+04  0.7818609E-02  0.8775706E-01
       -2   -1    0    0    0  501  0.00000000000E+00  0.00000000000E+00  0.59934424151E+03  0.59934424152E+03  0.25500000920E-02 0. -1.
        2   -1    0    0  501    0  0.00000000000E+00  0.00000000000E+00 -0.11704011486E+04  0.11704011486E+04  0.25500000920E-02 0.  1.
    10030    2    1    2    0    0  0.00000000000E+00  0.00000000000E+00 -0.57105690709E+03  0.17697453901E+04  0.16750799249E+04 0.  0.
        5    1    3    3  502    0 -0.13214333928E+03  0.36545156513E+03 -0.10693695614E+04  0.11378005350E+04  0.46999998093E+01 0.  1.
       -5    1    3    3    0  502  0.13214333928E+03 -0.36545156513E+03  0.49831265427E+03  0.63194485517E+03  0.46999998093E+01 0. -1.
</event>
<event>
 5   0  0.6601906E-05  0.1700126E+04  0.7818609E-02  0.8761292E-01
       -1   -1    0    0    0  501  0.00000000000E+00  0.00000000000E+00  0.50692912662E+03  0.50692912664E+03  0.50400001928E-02 0.  1.
        1   -1    0    0  501    0  0.00000000000E+00  0.00000000000E+00 -0.14254600120E+04  0.14254600120E+04  0.50400001928E-02 0. -1.
    10030    2    1    2    0    0  0.00000000000E+00  0.00000000000E+00 -0.91853088535E+03  0.19323891386E+04  0.17001261117E+04 0.  0.
        1    1    3    3  502    0 -0.75574930288E+03 -0.16778500214E+03 -0.85837501213E+03  0.11559050468E+04  0.50400001928E-02 0.  1.
       -1    1    3    3    0  502  0.75574930288E+03  0.16778500214E+03 -0.60155873224E+02  0.77648409182E+03  0.50400001928E-02 0. -1.
</event>
<event>
 5   0  0.1393870E-04  0.1706542E+04  0.7818609E-02  0.8757642E-01
       -2   -1    0    0    0  501  0.00000000000E+00  0.00000000000E+00  0.91243090628E+03  0.91243090628E+03  0.25500000920E-02 0.  1.
        2   -1    0    0  501    0  0.00000000000E+00  0.00000000000E+00 -0.79794656528E+03  0.79794656529E+03  0.25500000920E-02 0. -1.
    10030    2    1    2    0    0  0.00000000000E+00  0.00000000000E+00  0.11448434100E+03  0.17103774716E+04  0.17065416581E+04 0.  0.
        3    1    3    3  502    0 -0.25596845453E+03  0.53484222324E+03 -0.55772892697E+03  0.81402556450E+03  0.10100000352E+00 0. -1.
       -3    1    3    3    0  502  0.25596845453E+03 -0.53484222324E+03  0.67221326797E+03  0.89635190707E+03  0.10100000352E+00 0.  1.
</event>
<event>
 5   0  0.1255362E-04  0.1726375E+04  0.7818609E-02  0.8746463E-01
       -2   -1    0    0    0  501  0.00000000000E+00  0.00000000000E+00  0.89315660375E+03  0.89315660376E+03  0.25500000920E-02 0.  1.
        2   -1    0    0  501    0  0.00000000000E+00  0.00000000000E+00 -0.83422377549E+03  0.83422377549E+03  0.25500000920E-02 0. -1.
    10030    2    1    2    0    0  0.00000000000E+00  0.00000000000E+00  0.58932828262E+02  0.17273803792E+04  0.17263747844E+04 0.  0.
        1    1    3    3  502    0  0.42535536528E+02  0.13605842067E+03  0.88129732300E+03  0.89275200210E+03  0.50400001928E-02 0.  1.
       -1    1    3    3    0  502 -0.42535536528E+02 -0.13605842067E+03 -0.82236449474E+03  0.83462837715E+03  0.50400001928E-02 0. -1.
</event>
<event>
 5   0  0.1393870E-04  0.1707609E+04  0.7818609E-02  0.8757036E-01
       -2   -1    0    0    0  501  0.00000000000E+00  0.00000000000E+00  0.89970156266E+03  0.89970156267E+03  0.25500000920E-02 0. -1.
        2   -1    0    0  501    0  0.00000000000E+00  0.00000000000E+00 -0.81024916819E+03  0.81024916819E+03  0.25500000920E-02 0.  1.
    10030    2    1    2    0    0  0.00000000000E+00  0.00000000000E+00  0.89452394479E+02  0.17099507309E+04  0.17076093731E+04 0.  0.
        3    1    3    3  502    0 -0.73336717719E+03 -0.54680674221E+02  0.47910091082E+03  0.87769874425E+03  0.10100000352E+00 0. -1.
       -3    1    3    3    0  502  0.73336717719E+03  0.54680674221E+02 -0.38964851635E+03  0.83225198660E+03  0.10100000352E+00 0.  1.
</event>
<event>
 5   0  0.6539134E-05  0.1702061E+04  0.7818609E-02  0.8760190E-01
        1   -1    0    0  501    0  0.00000000000E+00  0.00000000000E+00  0.11429781596E+04  0.11429781597E+04  0.50400001928E-02 0.  1.
       -1   -1    0    0    0  501  0.00000000000E+00  0.00000000000E+00 -0.63365416558E+03  0.63365416560E+03  0.50400001928E-02 0. -1.
    10030    2    1    2    0    0  0.00000000000E+00  0.00000000000E+00  0.50932399407E+03  0.17766323253E+04  0.17020609531E+04 0.  0.
        2    1    3    3  502    0  0.33789617059E+03 -0.13319213280E+03 -0.54869314965E+03  0.65801074369E+03  0.25500000920E-02 0. -1.
       -2    1    3    3    0  502 -0.33789617059E+03  0.13319213280E+03  0.10580171437E+04  0.11186215816E+04  0.25500000920E-02 0.  1.
</event>
<event>
 5   0  0.1285639E-04  0.1695487E+04  0.7818609E-02  0.8763942E-01
        2   -1    0    0  501    0  0.00000000000E+00  0.00000000000E+00  0.72377203302E+03  0.72377203302E+03  0.25500000920E-02 0. -1.
       -2   -1    0    0    0  501  0.00000000000E+00  0.00000000000E+00 -0.99294956058E+03  0.99294956058E+03  0.25500000920E-02 0.  1.
    10030    2    1    2    0    0  0.00000000000E+00  0.00000000000E+00 -0.26917752756E+03  0.17167215936E+04  0.16954870948E+04 0.  0.
        4    1    3    3  502    0  0.57934170395E+03  0.50231382025E+03  0.23147970504E+03  0.80096220304E+03  0.12699999809E+01 0. -1.
       -4    1    3    3    0  502 -0.57934170395E+03 -0.50231382025E+03 -0.50065723260E+03  0.91575939056E+03  0.12699999809E+01 0.  1.
</event>
<event>
 5   0  0.6834837E-05  0.1697208E+04  0.7818609E-02  0.8762958E-01
        1   -1    0    0  501    0  0.00000000000E+00  0.00000000000E+00  0.62507081580E+03  0.62507081582E+03  0.50400001928E-02 0. -1.
       -1   -1    0    0    0  501  0.00000000000E+00  0.00000000000E+00 -0.11520753140E+04  0.11520753140E+04  0.50400001928E-02 0.  1.
    10030    2    1    2    0    0  0.00000000000E+00  0.00000000000E+00 -0.52700449815E+03  0.17771461298E+04  0.16972078911E+04 0.  0.
        5    1    3    3  502    0 -0.26729843995E+03 -0.75696263098E+03  0.24527657653E+02  0.80315912290E+03  0.46999998093E+01 0. -1.
       -5    1    3    3    0  502  0.26729843995E+03  0.75696263098E+03 -0.55153215581E+03  0.97398700689E+03  0.46999998093E+01 0.  1.
</event>
<event>
 5   0  0.6539134E-05  0.1699805E+04  0.7818609E-02  0.8761475E-01
        1   -1    0    0  501    0  0.00000000000E+00  0.00000000000E+00  0.64207462386E+03  0.64207462388E+03  0.50400001928E-02 0.  1.
       -1   -1    0    0    0  501  0.00000000000E+00  0.00000000000E+00 -0.11250007818E+04  0.11250007818E+04  0.50400001928E-02 0. -1.
    10030    2    1    2    0    0  0.00000000000E+00  0.00000000000E+00 -0.48292615792E+03  0.17670754057E+04  0.16998052287E+04 0.  0.
        2    1    3    3  502    0 -0.38760731705E+03  0.74972538931E+03 -0.34545626451E+03  0.91195812530E+03  0.25500000920E-02 0. -1.
       -2    1    3    3    0  502  0.38760731705E+03 -0.74972538931E+03 -0.13746989341E+03  0.85511728038E+03  0.25500000920E-02 0.  1.
</event>
<event>
 5   0  0.4720875E-05  0.1697518E+04  0.7818609E-02  0.8762781E-01
       -3   -1    0    0    0  501  0.00000000000E+00  0.00000000000E+00  0.95810344227E+03  0.95810344759E+03  0.10100000352E+00 0.  1.
        3   -1    0    0  501    0  0.00000000000E+00  0.00000000000E+00 -0.75189367535E+03  0.75189368213E+03  0.10100000352E+00 0. -1.
    10030    2    1    2    0    0  0.00000000000E+00  0.00000000000E+00  0.20620976692E+03  0.17099971297E+04  0.16975181047E+04 0.  0.
        5    1    3    3  502    0 -0.42093327491E+03 -0.48000175168E+03 -0.46027686040E+03  0.78705996072E+03  0.46999998093E+01 0. -1.
       -5    1    3    3    0  502  0.42093327491E+03  0.48000175168E+03  0.66648662733E+03  0.92293716901E+03  0.46999998093E+01 0.  1.
</event>
<event>
 5   0  0.6539134E-05  0.1700913E+04  0.7818609E-02  0.8760844E-01
        1   -1    0    0  501    0  0.00000000000E+00  0.00000000000E+00  0.57642597680E+03  0.57642597683E+03  0.50400001928E-02 0.  1.
       -1   -1    0    0    0  501  0.00000000000E+00  0.00000000000E+00 -0.12547598346E+04  0.12547598346E+04  0.50400001928E-02 0. -1.
    10030    2    1    2    0    0  0.00000000000E+00  0.00000000000E+00 -0.67833385783E+03  0.18311858115E+04  0.17009128883E+04 0.  0.
        2    1    3    3  502    0  0.60160919674E+03 -0.57510833749E+03 -0.15086232633E+03  0.84583844023E+03  0.25500000920E-02 0.  1.
       -2    1    3    3    0  502 -0.60160919674E+03  0.57510833749E+03 -0.52747153150E+03  0.98534737124E+03  0.25500000920E-02 0. -1.
</event>
<event>
 5   0  0.6615842E-05  0.1708481E+04  0.7818609E-02  0.8756542E-01
       -1   -1    0    0    0  501  0.00000000000E+00  0.00000000000E+00  0.77734315868E+03  0.77734315869E+03  0.50400001928E-02 0.  1.
        1   -1    0    0  501    0  0.00000000000E+00  0.00000000000E+00 -0.93874482524E+03  0.93874482526E+03  0.50400001928E-02 0. -1.
    10030    2    1    2    0    0  0.00000000000E+00  0.00000000000E+00 -0.16140166657E+03  0.17160879839E+04  0.17084810419E+04 0.  0.
        3    1    3    3  502    0  0.59622972558E+03  0.63478251738E+02  0.53045503053E+03  0.80056350387E+03  0.10100000352E+00 0.  1.
       -3    1    3    3    0  502 -0.59622972558E+03 -0.63478251738E+02 -0.69185669710E+03  0.91552448008E+03  0.10100000352E+00 0. -1.
</event>
<event>
 5   0  0.6834837E-05  0.1702207E+04  0.7818609E-02  0.8760106E-01
       -1   -1    0    0    0  501  0.00000000000E+00  0.00000000000E+00  0.12236920380E+04  0.12236920380E+04  0.50400001928E-02 0. -1.
        1   -1    0    0  501    0  0.00000000000E+00  0.00000000000E+00 -0.59196068639E+03  0.59196068641E+03  0.50400001928E-02 0.  1.
    10030    2    1    2    0    0  0.00000000000E+00  0.00000000000E+00  0.63173135162E+03  0.18156527244E+04  0.17022074830E+04 0.  0.
        5    1    3    3  502    0  0.56622049768E+03  0.11298864815E+03  0.98282515746E+03  0.11398857253E+04  0.46999998093E+01 0. -1.
       -5    1    3    3    0  502 -0.56622049768E+03 -0.11298864815E+03 -0.35109380584E+03  0.67576699913E+03  0.46999998093E+01 0.  1.
</event>
<event>
 5   0  0.1333546E-04  0.1702716E+04  0.7818609E-02  0.8759817E-01
       -2   -1    0    0    0  501  0.00000000000E+00  0.00000000000E+00  0.62455734019E+03  0.62455734019E+03  0.25500000920E-02 0.  1.
        2   -1    0    0  501    0  0.00000000000E+00  0.00000000000E+00 -0.11605187151E+04  0.11605187151E+04  0.25500000920E-02 0. -1.
    10030    2    1    2    0    0  0.00000000000E+00  0.00000000000E+00 -0.53596137489E+03  0.17850760553E+04  0.17027160444E+04 0.  0.
        5    1    3    3  502    0  0.30829175936E+03  0.49052761758E+03 -0.92195443181E+03  0.10888908195E+04  0.46999998093E+01 0. -1.
       -5    1    3    3    0  502 -0.30829175936E+03 -0.49052761758E+03  0.38599305692E+03  0.69618523576E+03  0.46999998093E+01 0.  1.
</event>
<event>
 5   0  0.6601906E-05  0.1698636E+04  0.7818609E-02  0.8762142E-01
       -1   -1    0    0    0  501  0.00000000000E+00  0.00000000000E+00  0.10400600358E+04  0.10400600358E+04  0.50400001928E-02 0.  1.
        1   -1    0    0  501    0  0.00000000000E+00  0.00000000000E+00 -0.69355754522E+03  0.69355754524E+03  0.50400001928E-02 0. -1.
    10030    2    1    2    0    0  0.00000000000E+00  0.00000000000E+00  0.34650249058E+03  0.17336175811E+04  0.16986364948E+04 0.  0.
        1    1    3    3  502    0  0.74354013631E+03  0.29601370498E+03  0.46347591276E+03  0.92481672215E+03  0.50400001928E-02 0. -1.
       -1    1    3    3    0  502 -0.74354013631E+03 -0.29601370498E+03 -0.11697342219E+03  0.80880085890E+03  0.50400001928E-02 0.  1.
</event>
<event>
 5   0  0.6834837E-05  0.1696456E+04  0.7818609E-02  0.8763388E-01
        1   -1    0    0  501    0  0.00000000000E+00  0.00000000000E+00  0.81052697215E+03  0.81052697216E+03  0.50400001928E-02 0.  1.
       -1   -1    0    0    0  501  0.00000000000E+00  0.00000000000E+00 -0.88768227720E+03  0.88768227722E+03  0.50400001928E-02 0. -1.
    10030    2    1    2    0    0  0.00000000000E+00  0.00000000000E+00 -0.77155305054E+02  0.16982092494E+04  0.16964556327E+04 0.  0.
        5    1    3    3  502    0  0.83735666796E+03  0.80539044351E+02 -0.14738965299E+03  0.85404831646E+03  0.46999998093E+01 0. -1.
       -5    1    3    3    0  502 -0.83735666796E+03 -0.80539044351E+02  0.70234347941E+02  0.84416093292E+03  0.46999998093E+01 0.  1.
</event>
<event>
 5   0  0.6564887E-05  0.1700844E+04  0.7818609E-02  0.8760883E-01
        1   -1    0    0  501    0  0.00000000000E+00  0.00000000000E+00  0.99983470354E+03  0.99983470355E+03  0.50400001928E-02 0.  1.
       -1   -1    0    0    0  501  0.00000000000E+00  0.00000000000E+00 -0.72333702559E+03  0.72333702560E+03  0.50400001928E-02 0. -1.
    10030    2    1    2    0    0  0.00000000000E+00  0.00000000000E+00  0.27649767795E+03  0.17231717292E+04  0.17008438618E+04 0.  0.
        4    1    3    3  502    0 -0.41695368930E+03 -0.63813471261E+03  0.52022553634E+03  0.92287730064E+03  0.12699999809E+01 0.  1.
       -4    1    3    3    0  502  0.41695368930E+03  0.63813471261E+03 -0.24372785839E+03  0.80029442852E+03  0.12699999809E+01 0. -1.
</event>
<event>
 5   0  0.6539134E-05  0.1709738E+04  0.7818609E-02  0.8755830E-01
       -1   -1    0    0    0  501  0.00000000000E+00  0.00000000000E+00  0.47453988961E+03  0.47453988964E+03  0.50400001928E-02 0.  1.
        1   -1    0    0  501    0  0.00000000000E+00  0.00000000000E+00 -0.15400210017E+04  0.15400210017E+04  0.50400001928E-02 0. -1.
    10030    2    1    2    0    0  0.00000000000E+00  0.00000000000E+00 -0.10654811121E+04  0.20145608913E+04  0.17097384551E+04 0.  0.
        2    1    3    3  502    0 -0.31441176801E+03  0.65201118208E+03 -0.10686056184E+04  0.12906941191E+04  0.25500000920E-02 0. -1.
       -2    1    3    3    0  502  0.31441176801E+03 -0.65201118208E+03  0.31245063020E+01  0.72386677225E+03  0.25500000920E-02 0.  1.
</event>
<event>
 5   0  0.1269175E-04  0.1702190E+04  0.7818609E-02  0.8760116E-01
        2   -1    0    0  501    0  0.00000000000E+00  0.00000000000E+00  0.64857076987E+03  0.64857076987E+03  0.25500000920E-02 0.  1.
       -2   -1    0    0    0  501  0.00000000000E+00  0.00000000000E+00 -0.11168599671E+04  0.11168599671E+04  0.25500000920E-02 0. -1.
    10030    2    1    2    0    0  0.00000000000E+00  0.00000000000E+00 -0.46828919722E+03  0.17654307370E+04  0.17021900349E+04 0.  0.
        2    1    3    3  502    0  0.44747297126E+03  0.69999811528E+03 -0.42528574295E+02  0.83188827438E+03  0.25500000920E-02 0. -1.
       -2    1    3    3    0  502 -0.44747297126E+03 -0.69999811528E+03 -0.42576062292E+03  0.93354246258E+03  0.25500000920E-02 0.  1.
</event>
<event>
 5   0  0.1393870E-04  0.1707984E+04  0.7818609E-02  0.8756824E-01
       -2   -1    0    0    0  501  0.00000000000E+00  0.00000000000E+00  0.44480033959E+03  0.44480033960E+03  0.25500000920E-02 0. -1.
        2   -1    0    0  501    0  0.00000000000E+00  0.00000000000E+00 -0.16396182493E+04  0.16396182493E+04  0.25500000920E-02 0.  1.
    10030    2    1    2    0    0  0.00000000000E+00  0.00000000000E+00 -0.11948179097E+04  0.20844185889E+04  0.17079844895E+04 0.  0.
        3    1    3    3  502    0  0.48796366174E+02 -0.20175816688E+03 -0.16083625331E+04  0.16217020353E+04  0.10100000352E+00 0.  1.
       -3    1    3    3    0  502 -0.48796366174E+02  0.20175816688E+03  0.41354462338E+03  0.46271655361E+03  0.10100000352E+00 0. -1.
</event>
<event>
 5   0  0.1285639E-04  0.1699656E+04  0.7818609E-02  0.8761560E-01
        2   -1    0    0  501    0  0.00000000000E+00  0.00000000000E+00  0.10708715773E+04  0.10708715773E+04  0.25500000920E-02 0.  1.
       -2   -1    0    0    0  501  0.00000000000E+00  0.00000000000E+00 -0.67441116655E+03  0.67441116655E+03  0.25500000920E-02 0. -1.
    10030    2    1    2    0    0  0.00000000000E+00  0.00000000000E+00  0.39646041079E+03  0.17452827439E+04  0.16996561413E+04 0.  0.
        4    1    3    3  502    0  0.41621370411E+03  0.73302160216E+03  0.87389856357E+02  0.84746275234E+03  0.12699999809E+01 0. -1.
       -4    1    3    3    0  502 -0.41621370411E+03 -0.73302160216E+03  0.30907055444E+03  0.89781999156E+03  0.12699999809E+01 0.  1.
</event>
<event>
 5   0  0.6834837E-05  0.1700305E+04  0.7818609E-02  0.8761190E-01
       -1   -1    0    0    0  501  0.00000000000E+00  0.00000000000E+00  0.90941234028E+03  0.90941234030E+03  0.50400001928E-02 0. -1.
        1   -1    0    0  501    0  0.00000000000E+00  0.00000000000E+00 -0.79475410260E+03  0.79475410262E+03  0.50400001928E-02 0.  1.
    10030    2    1    2    0    0  0.00000000000E+00  0.00000000000E+00  0.11465823768E+03  0.17041664429E+04  0.17003049002E+04 0.  0.
        5    1    3    3  502    0  0.64334810444E+03 -0.54369091861E+03 -0.57999580706E+02  0.84432377666E+03  0.46999998093E+01 0.  1.
       -5    1    3    3    0  502 -0.64334810444E+03  0.54369091861E+03  0.17265781839E+03  0.85984266626E+03  0.46999998093E+01 0. -1.
</event>
<event>
 5   0  0.1255362E-04  0.1706148E+04  0.7818609E-02  0.8757866E-01
        2   -1    0    0  501    0  0.00000000000E+00  0.00000000000E+00  0.14387549374E+04  0.14387549374E+04  0.25500000920E-02 0.  1.
       -2   -1    0    0    0  501  0.00000000000E+00  0.00000000000E+00 -0.50580912909E+03  0.50580912910E+03  0.25500000920E-02 0. -1.
    10030    2    1    2    0    0  0.00000000000E+00  0.00000000000E+00  0.93294580834E+03  0.19445640665E+04  0.17061481552E+04 0.  0.
        1    1    3    3  502    0 -0.39495030525E+03 -0.55513554249E+03  0.10516090641E+04  0.12530135026E+04  0.50400001928E-02 0.  1.
       -1    1    3    3    0  502  0.39495030525E+03  0.55513554249E+03 -0.11866325571E+03  0.69155056390E+03  0.50400001928E-02 0. -1.
</event>
<event>
 5   0  0.1333546E-04  0.1685647E+04  0.7818609E-02  0.8769593E-01
       -2   -1    0    0    0  501  0.00000000000E+00  0.00000000000E+00  0.62438512704E+03  0.62438512704E+03  0.25500000920E-02 0.  1.
        2   -1    0    0  501    0  0.00000000000E+00  0.00000000000E+00 -0.11376816763E+04  0.11376816763E+04  0.25500000920E-02 0. -1.
    10030    2    1    2    0    0  0.00000000000E+00  0.00000000000E+00 -0.51329654924E+03  0.17620668033E+04  0.16856470781E+04 0.  0.
        5    1    3    3  502    0 -0.30863306189E+03  0.72756677642E+03  0.49407776451E+02  0.79187814682E+03  0.46999998093E+01 0.  1.
       -5    1    3    3    0  502  0.30863306189E+03 -0.72756677642E+03 -0.56270432569E+03  0.97018865650E+03  0.46999998093E+01 0. -1.
</event>
<event>
 5   0  0.6564887E-05  0.1704481E+04  0.7818609E-02  0.8758813E-01
       -1   -1    0    0    0  501  0.00000000000E+00  0.00000000000E+00  0.60611930857E+03  0.60611930859E+03  0.50400001928E-02 0.  1.
        1   -1    0    0  501    0  0.00000000000E+00  0.00000000000E+00 -0.11983024941E+04  0.11983024941E+04  0.50400001928E-02 0. -1.
    10030    2    1    2    0    0  0.00000000000E+00  0.00000000000E+00 -0.59218318552E+03  0.18044218027E+04  0.17044814803E+04 0.  0.
        4    1    3    3  502    0 -0.32659026809E+03  0.17779663067E+03 -0.11078917808E+04  0.11686311035E+04  0.12699999809E+01 0. -1.
       -4    1    3    3    0  502  0.32659026809E+03 -0.17779663067E+03  0.51570859528E+03  0.63579069924E+03  0.12699999809E+01 0.  1.
</event>
<event>
 5   0  0.6539134E-05  0.1719558E+04  0.7818609E-02  0.8750288E-01
        1   -1    0    0  501    0  0.00000000000E+00  0.00000000000E+00  0.21803691161E+04  0.21803691161E+04  0.50400001928E-02 0. -1.
       -1   -1    0    0    0  501  0.00000000000E+00  0.00000000000E+00 -0.33903421460E+03  0.33903421463E+03  0.50400001928E-02 0.  1.
    10030    2    1    2    0    0  0.00000000000E+00  0.00000000000E+00  0.18413349015E+04  0.25194033308E+04  0.17195577697E+04 0.  0.
        2    1    3    3  502    0  0.88554251579E+02 -0.47180976072E+03 -0.12439715100E+03  0.49590418124E+03  0.25500000920E-02 0. -1.
       -2    1    3    3    0  502 -0.88554251579E+02  0.47180976072E+03  0.19657320525E+04  0.20234991495E+04  0.25500000920E-02 0.  1.
</event>
<event>
 5   0  0.6539134E-05  0.1711261E+04  0.7818609E-02  0.8754968E-01
       -1   -1    0    0    0  501  0.00000000000E+00  0.00000000000E+00  0.11929925845E+04  0.11929925845E+04  0.50400001928E-02 0. -1.
        1   -1    0    0  501    0  0.00000000000E+00  0.00000000000E+00 -0.61366989180E+03  0.61366989182E+03  0.50400001928E-02 0.  1.
    10030    2    1    2    0    0  0.00000000000E+00  0.00000000000E+00  0.57932269272E+03  0.18066624764E+04  0.17112610909E+04 0.  0.
        2    1    3    3  502    0  0.46119473558E+03 -0.93515004592E+02  0.10441032712E+04  0.11452498772E+04  0.25500000920E-02 0. -1.
       -2    1    3    3    0  502 -0.46119473558E+03  0.93515004592E+02 -0.46478057848E+03  0.66141259918E+03  0.25500000920E-02 0.  1.
</event>
<event>
 5   0  0.6834837E-05  0.1694013E+04  0.7818609E-02  0.8764786E-01
        1   -1    0    0  501    0  0.00000000000E+00  0.00000000000E+00  0.13547857891E+04  0.13547857891E+04  0.50400001928E-02 0.  1.
       -1   -1    0    0    0  501  0.00000000000E+00  0.00000000000E+00 -0.52954493520E+03  0.52954493522E+03  0.50400001928E-02 0. -1.
    10030    2    1    2    0    0  0.00000000000E+00  0.00000000000E+00  0.82524085388E+03  0.18843307243E+04  0.16940129314E+04 0.  0.
        5    1    3    3  502    0 -0.26989301674E+03  0.23888698896E+03 -0.43996938897E+03  0.56877446075E+03  0.46999998093E+01 0. -1.
       -5    1    3    3    0  502  0.26989301674E+03 -0.23888698896E+03  0.12652102428E+04  0.13155562636E+04  0.46999998093E+01 0.  1.
</event>
<event>
 5   0  0.6539134E-05  0.1697511E+04  0.7818609E-02  0.8762785E-01
       -1   -1    0    0    0  501  0.00000000000E+00  0.00000000000E+00  0.46828479463E+03  0.46828479465E+03  0.50400001928E-02 0. -1.
        1   -1    0    0  501    0  0.00000000000E+00  0.00000000000E+00 -0.15383504940E+04  0.15383504940E+04  0.50400001928E-02 0.  1.
    10030    2    1    2    0    0  0.00000000000E+00  0.00000000000E+00 -0.10700656994E+04  0.20066352887E+04  0.16975112903E+04 0.  0.
        2    1    3    3  502    0 -0.18064158547E+03  0.17467324395E+03 -0.14933717031E+04  0.15143649389E+04  0.25500000920E-02 0.  1.
       -2    1    3    3    0  502  0.18064158547E+03 -0.17467324395E+03  0.42330600367E+03  0.49227034981E+03  0.25500000920E-02 0. -1.
</event>
<event>
 5   0  0.1269175E-04  0.1702435E+04  0.7818609E-02  0.8759977E-01
        2   -1    0    0  501    0  0.00000000000E+00  0.00000000000E+00  0.25857539941E+04  0.25857539941E+04  0.25500000920E-02 0. -1.
       -2   -1    0    0    0  501  0.00000000000E+00  0.00000000000E+00 -0.28021675726E+03  0.28021675727E+03  0.25500000920E-02 0.  1.
    10030    2    1    2    0    0  0.00000000000E+00  0.00000000000E+00  0.23055372369E+04  0.28659707514E+04  0.17024354312E+04 0.  0.
        2    1    3    3  502    0 -0.52275133130E+03  0.63106937245E+03  0.15405264233E+04  0.17449180978E+04  0.25500000920E-02 0. -1.
       -2    1    3    3    0  502  0.52275133130E+03 -0.63106937245E+03  0.76501081361E+03  0.11210526536E+04  0.25500000920E-02 0.  1.
</event>
<event>
 5   0  0.1269175E-04  0.1705213E+04  0.7818609E-02  0.8758397E-01
        2   -1    0    0  501    0  0.00000000000E+00  0.00000000000E+00  0.85001580411E+03  0.85001580412E+03  0.25500000920E-02 0.  1.
       -2   -1    0    0    0  501  0.00000000000E+00  0.00000000000E+00 -0.85520518482E+03  0.85520518483E+03  0.25500000920E-02 0. -1.
    10030    2    1    2    0    0  0.00000000000E+00  0.00000000000E+00 -0.51893807101E+01  0.17052209889E+04  0.17052130927E+04 0.  0.
        2    1    3    3  502    0  0.57891219867E+03  0.34392451584E+03  0.52039388466E+03  0.85101891963E+03  0.25500000920E-02 0.  1.
       -2    1    3    3    0  502 -0.57891219867E+03 -0.34392451584E+03 -0.52558326537E+03  0.85420206931E+03  0.25500000920E-02 0. -1.
</event>
<event>
 5   0  0.1393870E-04  0.1694684E+04  0.7818609E-02  0.8764402E-01
        2   -1    0    0  501    0  0.00000000000E+00  0.00000000000E+00  0.10221355786E+04  0.10221355786E+04  0.25500000920E-02 0.  1.
       -2   -1    0    0    0  501  0.00000000000E+00  0.00000000000E+00 -0.70243995973E+03  0.70243995973E+03  0.25500000920E-02 0. -1.
    10030    2    1    2    0    0  0.00000000000E+00  0.00000000000E+00  0.31969561888E+03  0.17245755383E+04  0.16946844835E+04 0.  0.
        3    1    3    3  502    0  0.83640464930E+02 -0.50873799276E+03 -0.52445522085E+03  0.73543413133E+03  0.10100000352E+00 0. -1.
       -3    1    3    3    0  502 -0.83640464930E+02  0.50873799276E+03  0.84415083973E+03  0.98914140701E+03  0.10100000352E+00 0.  1.
</event>
<event>
 5   0  0.6601906E-05  0.1695957E+04  0.7818609E-02  0.8763674E-01
       -1   -1    0    0    0  501  0.00000000000E+00  0.00000000000E+00  0.57574218888E+03  0.57574218890E+03  0.50400001928E-02 0.  1.
        1   -1    0    0  501    0  0.00000000000E+00  0.00000000000E+00 -0.12489399811E+04  0.12489399811E+04  0.50400001928E-02 0. -1.
    10030    2    1    2    0    0  0.00000000000E+00  0.00000000000E+00 -0.67319779221E+03  0.18246821700E+04  0.16959568845E+04 0.  0.
        1    1    3    3  502    0 -0.90024913111E+02  0.81825330363E+03 -0.11762064745E+03  0.83155130366E+03  0.50400001928E-02 0.  1.
       -1    1    3    3    0  502  0.90024913111E+02 -0.81825330363E+03 -0.55557714476E+03  0.99313086635E+03  0.50400001928E-02 0. -1.
</event>
<event>
 5   0  0.6539134E-05  0.1702875E+04  0.7818609E-02  0.8759726E-01
        1   -1    0    0  501    0  0.00000000000E+00  0.00000000000E+00  0.11009999661E+04  0.11009999661E+04  0.50400001928E-02 0.  1.
       -1   -1    0    0    0  501  0.00000000000E+00  0.00000000000E+00 -0.65844288072E+03  0.65844288074E+03  0.50400001928E-02 0. -1.
    10030    2    1    2    0    0  0.00000000000E+00  0.00000000000E+00  0.44255708536E+03  0.17594428468E+04  0.17028747333E+04 0.  0.
        2    1    3    3  502    0  0.16911966462E+03  0.83240175800E+03  0.16057797794E+03  0.86445325766E+03  0.25500000920E-02 0.  1.
       -2    1    3    3    0  502 -0.16911966462E+03 -0.83240175800E+03  0.28197910743E+03  0.89498958917E+03  0.25500000920E-02 0. -1.
</event>
<event>
 5   0  0.6539134E-05  0.1694041E+04  0.7818609E-02  0.8764770E-01
       -1   -1    0    0    0  501  0.00000000000E+00  0.00000000000E+00  0.51457066335E+03  0.51457066338E+03  0.50400001928E-02 0. -1.
        1   -1    0    0  501    0  0.00000000000E+00  0.00000000000E+00 -0.13942568410E+04  0.13942568410E+04  0.50400001928E-02 0.  1.
    10030    2    1    2    0    0  0.00000000000E+00  0.00000000000E+00 -0.87968617766E+03  0.19088275044E+04  0.16940409294E+04 0.  0.
        2    1    3    3  502    0  0.17352794986E+03 -0.57430816625E+03 -0.11135669530E+04  0.12649004617E+04  0.25500000920E-02 0.  1.
       -2    1    3    3    0  502 -0.17352794986E+03  0.57430816625E+03  0.23388077536E+03  0.64392704268E+03  0.25500000920E-02 0. -1.
</event>
<event>
 5   0  0.1393870E-04  0.1702964E+04  0.7818609E-02  0.8759676E-01
       -2   -1    0    0    0  501  0.00000000000E+00  0.00000000000E+00  0.60243512983E+03  0.60243512983E+03  0.25500000920E-02 0.  1.
        2   -1    0    0  501    0  0.00000000000E+00  0.00000000000E+00 -0.12034845047E+04  0.12034845047E+04  0.25500000920E-02 0. -1.
    10030    2    1    2    0    0  0.00000000000E+00  0.00000000000E+00 -0.60104937485E+03  0.18059196345E+04  0.17029637035E+04 0.  0.
        3    1    3    3  502    0 -0.79934090125E+03  0.28664884825E+03 -0.36681719884E+03  0.92502340845E+03  0.10100000352E+00 0.  1.
       -3    1    3    3    0  502  0.79934090125E+03 -0.28664884825E+03 -0.23423217601E+03  0.88089622606E+03  0.10100000352E+00 0. -1.
</event>
<event>
 5   0  0.1269175E-04  0.1711923E+04  0.7818609E-02  0.8754593E-01
       -2   -1    0    0    0  501  0.00000000000E+00  0.00000000000E+00  0.42174640974E+03  0.42174640975E+03  0.25500000920E-02 0.  1.
        2   -1    0    0  501    0  0.00000000000E+00  0.00000000000E+00 -0.17372299185E+04  0.17372299185E+04  0.25500000920E-02 0. -1.
    10030    2    1    2    0    0  0.00000000000E+00  0.00000000000E+00 -0.13154835087E+04  0.21589763282E+04  0.17119234574E+04 0.  0.
        2    1    3    3  502    0  0.44338983822E+03  0.61460288749E+03 -0.15591039991E+03  0.77371784958E+03  0.25500000920E-02 0.  1.
       -2    1    3    3    0  502 -0.44338983822E+03 -0.61460288749E+03 -0.11595731088E+04  0.13852584786E+04  0.25500000920E-02 0. -1.
</event>
<event>
 5   0  0.1269175E-04  0.1699725E+04  0.7818609E-02  0.8761521E-01
       -2   -1    0    0    0  501  0.00000000000E+00  0.00000000000E+00  0.62204867910E+03  0.62204867910E+03  0.25500000920E-02 0. -1.
        2   -1    0    0  501    0  0.00000000000E+00  0.00000000000E+00 -0.11611094315E+04  0.11611094315E+04  0.25500000920E-02 0.  1.
    10030    2    1    2    0    0  0.00000000000E+00  0.00000000000E+00 -0.53906075238E+03  0.17831581106E+04  0.16997253756E+04 0.  0.
        2    1    3    3  502    0  0.59840083931E+03 -0.60160618796E+03 -0.21973449165E+03  0.87652542274E+03  0.25500000920E-02 0. -1.
       -2    1    3    3    0  502 -0.59840083931E+03  0.60160618796E+03 -0.31932626073E+03  0.90663268785E+03  0.25500000920E-02 0.  1.
</event>
<event>
 5   0  0.6564887E-05  0.1733996E+04  0.7818609E-02  0.8742209E-01
        1   -1    0    0  501    0  0.00000000000E+00  0.00000000000E+00  0.79256743067E+03  0.79256743069E+03  0.50400001928E-02 0.  1.
       -1   -1    0    0    0  501  0.00000000000E+00  0.00000000000E+00 -0.94841819662E+03  0.94841819664E+03  0.50400001928E-02 0. -1.
    10030    2    1    2    0    0  0.00000000000E+00  0.00000000000E+00 -0.15585076595E+03  0.17409856273E+04  0.17339958170E+04 0.  0.
        4    1    3    3  502    0  0.27932202106E+03 -0.67294131563E+03  0.39387622304E+03  0.82825774835E+03  0.12699999809E+01 0.  1.
       -4    1    3    3    0  502 -0.27932202106E+03  0.67294131563E+03 -0.54972698899E+03  0.91272787897E+03  0.12699999809E+01 0. -1.
</event>
<event>
 5   0  0.4720875E-05  0.1701807E+04  0.7818609E-02  0.8760334E-01
        3   -1    0    0  501    0  0.00000000000E+00  0.00000000000E+00  0.77762376778E+03  0.77762377434E+03  0.10100000352E+00 0. -1.
       -3   -1    0    0    0  501  0.00000000000E+00  0.00000000000E+00 -0.93108907922E+03  0.93108908470E+03  0.10100000352E+00 0.  1.
    10030    2    1    2    0    0  0.00000000000E+00  0.00000000000E+00 -0.15346531144E+03  0.17087128590E+04  0.17018072843E+04 0.  0.
        1    1    3    3  502    0 -0.19703241030E+01 -0.64656089005E+03 -0.63214284906E+03  0.90423970736E+03  0.50400001928E-02 0.  1.
       -1    1    3    3    0  502  0.19703241030E+01  0.64656089005E+03  0.47867753763E+03  0.80447315168E+03  0.50400001928E-02 0. -1.
</event>
<event>
 5   0  0.1255362E-04  0.1690743E+04  0.7818609E-02  0.8766662E-01
       -2   -1    0    0    0  501  0.00000000000E+00  0.00000000000E+00  0.50873836480E+03  0.50873836481E+03  0.25500000920E-02 0.  1.
        2   -1    0    0  501    0  0.00000000000E+00  0.00000000000E+00 -0.14047554190E+04  0.14047554190E+04  0.25500000920E-02 0. -1.
    10030    2    1    2    0    0  0.00000000000E+00  0.00000000000E+00 -0.89601705417E+03  0.19134937838E+04  0.16907430021E+04 0.  0.
        1    1    3    3  502    0 -0.51139332100E+03  0.15505780054E+03 -0.11893564881E+04  0.13038922141E+04  0.50400001928E-02 0. -1.
       -1    1    3    3    0  502  0.51139332100E+03 -0.15505780054E+03  0.29333943388E+03  0.60960156969E+03  0.50400001928E-02 0.  1.
</event>
<event>
 5   0  0.1393870E-04  0.1705948E+04  0.7818609E-02  0.8757979E-01
       -2   -1    0    0    0  501  0.00000000000E+00  0.00000000000E+00  0.42728842953E+03  0.42728842954E+03  0.25500000920E-02 0. -1.
        2   -1    0    0  501    0  0.00000000000E+00  0.00000000000E+00 -0.17027492498E+04  0.17027492498E+04  0.25500000920E-02 0.  1.
    10030    2    1    2    0    0  0.00000000000E+00  0.00000000000E+00 -0.12754608203E+04  0.21300376793E+04  0.17059484785E+04 0.  0.
        3    1    3    3  502    0 -0.82666804762E+03 -0.12233831042E+03 -0.42430359093E+03  0.93721943569E+03  0.10100000352E+00 0.  1.
       -3    1    3    3    0  502  0.82666804762E+03  0.12233831042E+03 -0.85115722934E+03  0.11928182437E+04  0.10100000352E+00 0. -1.
</event>
<event>
 5   0  0.6539134E-05  0.1705795E+04  0.7818609E-02  0.8758066E-01
       -1   -1    0    0    0  501  0.00000000000E+00  0.00000000000E+00  0.10176642434E+04  0.10176642434E+04  0.50400001928E-02 0.  1.
        1   -1    0    0  501    0  0.00000000000E+00  0.00000000000E+00 -0.71480787708E+03  0.71480787710E+03  0.50400001928E-02 0. -1.
    10030    2    1    2    0    0  0.00000000000E+00  0.00000000000E+00  0.30285636631E+03  0.17324721205E+04  0.17057953188E+04 0.  0.
        2    1    3    3  502    0  0.25314562163E+03 -0.57586080485E+03 -0.43354460997E+03  0.76397598206E+03  0.25500000920E-02 0. -1.
       -2    1    3    3    0  502 -0.25314562163E+03  0.57586080485E+03  0.73640097629E+03  0.96849613845E+03  0.25500000920E-02 0.  1.
</event>
<event>
 5   0  0.1393870E-04  0.1697015E+04  0.7818609E-02  0.8763069E-01
        2   -1    0    0  501    0  0.00000000000E+00  0.00000000000E+00  0.91183831787E+03  0.91183831788E+03  0.25500000920E-02 0. -1.
       -2   -1    0    0    0  501  0.00000000000E+00  0.00000000000E+00 -0.78957500318E+03  0.78957500318E+03  0.25500000920E-02 0.  1.
    10030    2    1    2    0    0  0.00000000000E+00  0.00000000000E+00  0.12226331470E+03  0.17014133211E+04  0.16970147233E+04 0.  0.
        3    1    3    3  502    0  0.15169387038E+03 -0.82273604462E+03 -0.80865605803E+02  0.84050275778E+03  0.10100000352E+00 0.  1.
       -3    1    3    3    0  502 -0.15169387038E+03  0.82273604462E+03  0.20312892050E+03  0.86091056328E+03  0.10100000352E+00 0. -1.
</event>
<event>
 5   0  0.1269175E-04  0.1715031E+04  0.7818609E-02  0.8752838E-01
       -2   -1    0    0    0  501  0.00000000000E+00  0.00000000000E+00  0.81887368197E+03  0.81887368198E+03  0.25500000920E-02 0.  1.
        2   -1    0    0  501    0  0.00000000000E+00  0.00000000000E+00 -0.89798054090E+03  0.89798054090E+03  0.25500000920E-02 0. -1.
    10030    2    1    2    0    0  0.00000000000E+00  0.00000000000E+00 -0.79106858923E+02  0.17168542229E+04  0.17150307658E+04 0.  0.
        2    1    3    3  502    0  0.24508643395E+03  0.53630547348E+03 -0.66282419476E+03  0.88714532866E+03  0.25500000920E-02 0. -1.
       -2    1    3    3    0  502 -0.24508643395E+03 -0.53630547348E+03  0.58371733584E+03  0.82970889422E+03  0.25500000920E-02 0.  1.
</event>
<event>
 5   0  0.1333546E-04  0.1699102E+04  0.7818609E-02  0.8761877E-01
       -2   -1    0    0    0  501  0.00000000000E+00  0.00000000000E+00  0.55901526951E+03  0.55901526952E+03  0.25500000920E-02 0.  1.
        2   -1    0    0  501    0  0.00000000000E+00  0.00000000000E+00 -0.12910854933E+04  0.12910854933E+04  0.25500000920E-02 0. -1.
    10030    2    1    2    0    0  0.00000000000E+00  0.00000000000E+00 -0.73207022379E+03  0.18501007628E+04  0.16991015332E+04 0.  0.
        5    1    3    3  502    0 -0.54277260844E+03 -0.63718341557E+03 -0.52423861965E+03  0.98765025686E+03  0.46999998093E+01 0. -1.
       -5    1    3    3    0  502  0.54277260844E+03  0.63718341557E+03 -0.20783160415E+03  0.86245050596E+03  0.46999998093E+01 0.  1.
</event>
<event>
 5   0  0.6834837E-05  0.1698519E+04  0.7818609E-02  0.8762210E-01
        1   -1    0    0  501    0  0.00000000000E+00  0.00000000000E+00  0.19761546187E+04  0.19761546187E+04  0.50400001928E-02 0.  1.
       -1   -1    0    0    0  501  0.00000000000E+00  0.00000000000E+00 -0.36497211395E+03  0.36497211399E+03  0.50400001928E-02 0. -1.
    10030    2    1    2    0    0  0.00000000000E+00  0.00000000000E+00  0.16111825047E+04  0.23411267327E+04  0.16985185648E+04 0.  0.
        5    1    3    3  502    0 -0.56662842489E+03 -0.49047706482E+03  0.25497514418E+03  0.79162487149E+03  0.46999998093E+01 0. -1.
       -5    1    3    3    0  502  0.56662842489E+03  0.49047706482E+03  0.13562073606E+04  0.15495018612E+04  0.46999998093E+01 0.  1.
</event>
<event>
 5   0  0.6834837E-05  0.1721296E+04  0.7818609E-02  0.8749311E-01
        1   -1    0    0  501    0  0.00000000000E+00  0.00000000000E+00  0.12507090192E+04  0.12507090193E+04  0.50400001928E-02 0.  1.
       -1   -1    0    0    0  501  0.00000000000E+00  0.00000000000E+00 -0.59223633028E+03  0.59223633031E+03  0.50400001928E-02 0. -1.
    10030    2    1    2    0    0  0.00000000000E+00  0.00000000000E+00  0.65847268896E+03  0.18429453496E+04  0.17212963950E+04 0.  0.
        5    1    3    3  502    0 -0.28974569562E+03 -0.28182855258E+03 -0.48427308244E+03  0.63081091426E+03  0.46999998093E+01 0. -1.
       -5    1    3    3    0  502  0.28974569562E+03  0.28182855258E+03  0.11427457714E+04  0.12121344353E+04  0.46999998093E+01 0.  1.
</event>
<event>
 5   0  0.1255362E-04  0.1705885E+04  0.7818609E-02  0.8758015E-01
       -2   -1    0    0    0  501  0.00000000000E+00  0.00000000000E+00  0.14655063856E+04  0.14655063856E+04  0.25500000920E-02 0.  1.
        2   -1    0    0  501    0  0.00000000000E+00  0.00000000000E+00 -0.49642284467E+03  0.49642284467E+03  0.25500000920E-02 0. -1.
    10030    2    1    2    0    0  0.00000000000E+00  0.00000000000E+00  0.96908354092E+03  0.19619292303E+04  0.17058849303E+04 0.  0.
        1    1    3    3  502    0  0.25092191148E+03  0.81502302712E+03  0.46507462484E+03  0.97134893169E+03  0.50400001928E-02 0.  1.
       -1    1    3    3    0  502 -0.25092191148E+03 -0.81502302712E+03  0.50400891608E+03  0.99058029857E+03  0.50400001928E-02 0. -1.
</event>
<event>
 5   0  0.6564887E-05  0.1698199E+04  0.7818609E-02  0.8762392E-01
        1   -1    0    0  501    0  0.00000000000E+00  0.00000000000E+00  0.22218999460E+04  0.22218999460E+04  0.50400001928E-02 0. -1.
       -1   -1    0    0    0  501  0.00000000000E+00  0.00000000000E+00 -0.32448340544E+03  0.32448340548E+03  0.50400001928E-02 0.  1.
    10030    2    1    2    0    0  0.00000000000E+00  0.00000000000E+00  0.18974165406E+04  0.25463833515E+04  0.16981986469E+04 0.  0.
        4    1    3    3  502    0 -0.51698451015E+03  0.67098011362E+03  0.86024320337E+03  0.12072726612E+04  0.12699999809E+01 0. -1.
       -4    1    3    3    0  502  0.51698451015E+03 -0.67098011362E+03  0.10371733372E+04  0.13391106903E+04  0.12699999809E+01 0.  1.
</event>
<event>
 5   0  0.1269175E-04  0.1701698E+04  0.7818609E-02  0.8760397E-01
        2   -1    0    0  501    0  0.00000000000E+00  0.00000000000E+00  0.11595582346E+04  0.11595582346E+04  0.25500000920E-02 0.  1.
       -2   -1    0    0    0  501  0.00000000000E+00  0.00000000000E+00 -0.62432741300E+03  0.62432741300E+03  0.25500000920E-02 0. -1.
    10030    2    1    2    0    0  0.00000000000E+00  0.00000000000E+00  0.53523082157E+03  0.17838856476E+04  0.17016979671E+04 0.  0.
        2    1    3    3  502    0 -0.75230663898E+03  0.24805150895E+03 -0.57946629935E+02  0.79426232573E+03  0.25500000920E-02 0. -1.
       -2    1    3    3    0  502  0.75230663898E+03 -0.24805150895E+03  0.59317745150E+03  0.98962332184E+03  0.25500000920E-02 0.  1.
</event>
<event>
 5   0  0.6601906E-05  0.1775624E+04  0.7818609E-02  0.8719371E-01
       -1   -1    0    0    0  501  0.00000000000E+00  0.00000000000E+00  0.57919050133E+03  0.57919050135E+03  0.50400001928E-02 0.  1.
        1   -1    0    0  501    0  0.00000000000E+00  0.00000000000E+00 -0.13608821646E+04  0.13608821646E+04  0.50400001928E-02 0. -1.
    10030    2    1    2    0    0  0.00000000000E+00  0.00000000000E+00 -0.78169166322E+03  0.19400726659E+04  0.17756238601E+04 0.  0.
        1    1    3    3  502    0 -0.11713154405E+03 -0.25591693789E+03  0.52915696048E+03  0.59934995334E+03  0.50400001928E-02 0.  1.
       -1    1    3    3    0  502  0.11713154405E+03  0.25591693789E+03 -0.13108486237E+04  0.13407227126E+04  0.50400001928E-02 0. -1.
</event>
<event>
 5   0  0.1285639E-04  0.1709730E+04  0.7818609E-02  0.8755835E-01
        2   -1    0    0  501    0  0.00000000000E+00  0.00000000000E+00  0.13156210441E+04  0.13156210441E+04  0.25500000920E-02 0. -1.
       -2   -1    0    0    0  501  0.00000000000E+00  0.00000000000E+00 -0.55547443701E+03  0.55547443702E+03  0.25500000920E-02 0.  1.
    10030    2    1    2    0    0  0.00000000000E+00  0.00000000000E+00  0.76014660704E+03  0.18710954811E+04  0.17097296380E+04 0.  0.
        4    1    3    3  502    0 -0.33425406364E+03  0.72285395191E+03  0.40024250471E+02  0.79740025607E+03  0.12699999809E+01 0.  1.
       -4    1    3    3    0  502  0.33425406364E+03 -0.72285395191E+03  0.72012235657E+03  0.10736952250E+04  0.12699999809E+01 0. -1.
</event>
<event>
 5   0  0.6564887E-05  0.1697720E+04  0.7818609E-02  0.8762666E-01
        1   -1    0    0  501    0  0.00000000000E+00  0.00000000000E+00  0.59479470020E+03  0.59479470022E+03  0.50400001928E-02 0. -1.
       -1   -1    0    0    0  501  0.00000000000E+00  0.00000000000E+00 -0.12114493862E+04  0.12114493862E+04  0.50400001928E-02 0.  1.
    10030    2    1    2    0    0  0.00000000000E+00  0.00000000000E+00 -0.61665468602E+03  0.18062440864E+04  0.16977204417E+04 0.  0.
        4    1    3    3  502    0  0.69731138957E+03 -0.41761873045E+03 -0.56874627063E+03  0.99202949114E+03  0.12699999809E+01 0.  1.
       -4    1    3    3    0  502 -0.69731138957E+03  0.41761873045E+03 -0.47908415389E+02  0.81421459530E+03  0.12699999809E+01 0. -1.
</event>
<event>
 5   0  0.4720875E-05  0.1692399E+04  0.7818609E-02  0.8765711E-01
        4   -1    0    0  501    0  0.00000000000E+00  0.00000000000E+00  0.65468390935E+03  0.65468514116E+03  0.12699999809E+01 0.  1.
       -4   -1    0    0    0  501  0.00000000000E+00  0.00000000000E+00 -0.10937370691E+04  0.10937378064E+04  0.12699999809E+01 0. -1.
    10030    2    1    2    0    0  0.00000000000E+00  0.00000000000E+00 -0.43905315973E+03  0.17484229476E+04  0.16923992220E+04 0.  0.
        4    1    3    3  502    0  0.55565841735E+03 -0.63431995114E+03 -0.29209493555E+03  0.89243439056E+03  0.12699999809E+01 0. -1.
       -4    1    3    3    0  502 -0.55565841735E+03  0.63431995114E+03 -0.14695822418E+03  0.85598855701E+03  0.12699999809E+01 0.  1.
</event>
<event>
 5   0  0.6564887E-05  0.1702065E+04  0.7818609E-02  0.8760188E-01
        1   -1    0    0  501    0  0.00000000000E+00  0.00000000000E+00  0.13315828922E+04  0.13315828922E+04  0.50400001928E-02 0.  1.
       -1   -1    0    0    0  501  0.00000000000E+00  0.00000000000E+00 -0.54390625626E+03  0.54390625628E+03  0.50400001928E-02 0. -1.
    10030    2    1    2    0    0  0.00000000000E+00  0.00000000000E+00  0.78767663595E+03  0.18754891485E+04  0.17020649410E+04 0.  0.
        4    1    3    3  502    0 -0.33957918613E+02 -0.76726139964E+03  0.79781525719E+03  0.11074086839E+04  0.12699999809E+01 0.  1.
       -4    1    3    3    0  502  0.33957918613E+02  0.76726139964E+03 -0.10138621234E+02  0.76808046463E+03  0.12699999809E+01 0. -1.
</event>
<event>
 5   0  0.6834837E-05  0.1699983E+04  0.7818609E-02  0.8761374E-01
        1   -1    0    0  501    0  0.00000000000E+00  0.00000000000E+00  0.13857085208E+04  0.13857085208E+04  0.50400001928E-02 0.  1.
       -1   -1    0    0    0  501  0.00000000000E+00  0.00000000000E+00 -0.52138375882E+03  0.52138375884E+03  0.50400001928E-02 0. -1.
    10030    2    1    2    0    0  0.00000000000E+00  0.00000000000E+00  0.86432476197E+03  0.19070922796E+04  0.16999834320E+04 0.  0.
        5    1    3    3  502    0  0.51756707948E+03  0.19190866906E+02  0.11882290225E+04  0.12962076497E+04  0.46999998093E+01 0.  1.
       -5    1    3    3    0  502 -0.51756707948E+03 -0.19190866906E+02 -0.32390426055E+03  0.61088462997E+03  0.46999998093E+01 0. -1.
</event>
<event>
 5   0  0.1255362E-04  0.1699173E+04  0.7818609E-02  0.8761836E-01
       -2   -1    0    0    0  501  0.00000000000E+00  0.00000000000E+00  0.71385348904E+03  0.71385348905E+03  0.25500000920E-02 0.  1.
        2   -1    0    0  501    0  0.00000000000E+00  0.00000000000E+00 -0.10111274219E+04  0.10111274219E+04  0.25500000920E-02 0. -1.
    10030    2    1    2    0    0  0.00000000000E+00  0.00000000000E+00 -0.29727393286E+03  0.17249809110E+04  0.16991725492E+04 0.  0.
        1    1    3    3  502    0 -0.22331594780E+03  0.53223224581E+03 -0.78152853443E+03  0.97155958447E+03  0.50400001928E-02 0. -1.
       -1    1    3    3    0  502  0.22331594780E+03 -0.53223224581E+03  0.48425460157E+03  0.75342132648E+03  0.50400001928E-02 0.  1.
</event>
<event>
 5   0  0.6834837E-05  0.1701986E+04  0.7818609E-02  0.8760232E-01
        1   -1    0    0  501    0  0.00000000000E+00  0.00000000000E+00  0.93841935444E+03  0.93841935446E+03  0.50400001928E-02 0.  1.
       -1   -1    0    0    0  501  0.00000000000E+00  0.00000000000E+00 -0.77171176359E+03  0.77171176360E+03  0.50400001928E-02 0. -1.
    10030    2    1    2    0    0  0.00000000000E+00  0.00000000000E+00  0.16670759086E+03  0.17101311181E+04  0.17019861986E+04 0.  0.
        5    1    3    3  502    0  0.60249304350E+03 -0.47004402760E+03  0.45961600858E+03  0.89174448173E+03  0.46999998093E+01 0.  1.
       -5    1    3    3    0  502 -0.60249304350E+03  0.47004402760E+03 -0.29290841772E+03  0.81838663633E+03  0.46999998093E+01 0. -1.
</event>
<event>
 5   0  0.1255362E-04  0.1709376E+04  0.7818609E-02  0.8756035E-01
        2   -1    0    0  501    0  0.00000000000E+00  0.00000000000E+00  0.59213907404E+03  0.59213907405E+03  0.25500000920E-02 0. -1.
       -2   -1    0    0    0  501  0.00000000000E+00  0.00000000000E+00 -0.12336489238E+04  0.12336489238E+04  0.25500000920E-02 0.  1.
    10030    2    1    2    0    0  0.00000000000E+00  0.00000000000E+00 -0.64150984972E+03  0.18257879978E+04  0.17093761803E+04 0.  0.
        1    1    3    3  502    0 -0.76882624705E+03 -0.29152731552E+03 -0.56989930492E+03  0.10004335019E+04  0.50400001928E-02 0.  1.
       -1    1    3    3    0  502  0.76882624705E+03  0.29152731552E+03 -0.71610544791E+02  0.82535449596E+03  0.50400001928E-02 0. -1.
</event>
<event>
 5   0  0.6615842E-05  0.1664596E+04  0.7818609E-02  0.8781818E-01
        1   -1    0    0  501    0  0.00000000000E+00  0.00000000000E+00  0.81278816004E+03  0.81278816005E+03  0.50400001928E-02 0.  1.
       -1   -1    0    0    0  501  0.00000000000E+00  0.00000000000E+00 -0.85227612197E+03  0.85227612198E+03  0.50400001928E-02 0. -1.
    10030    2    1    2    0    0  0.00000000000E+00  0.00000000000E+00 -0.39487961932E+02  0.16650642820E+04  0.16645959763E+04 0.  0.
        3    1    3    3  502    0  0.34743403044E+03  0.63417360994E+03  0.39248038838E+03  0.82275600181E+03  0.10100000352E+00 0.  1.
       -3    1    3    3    0  502 -0.34743403044E+03 -0.63417360994E+03 -0.43196835031E+03  0.84230828022E+03  0.10100000352E+00 0. -1.
</event>
<event>
 5   0  0.6834837E-05  0.1708767E+04  0.7818609E-02  0.8756380E-01
       -1   -1    0    0    0  501  0.00000000000E+00  0.00000000000E+00  0.12666998885E+04  0.12666998885E+04  0.50400001928E-02 0.  1.
        1   -1    0    0  501    0  0.00000000000E+00  0.00000000000E+00 -0.57627803207E+03  0.57627803209E+03  0.50400001928E-02 0. -1.
    10030    2    1    2    0    0  0.00000000000E+00  0.00000000000E+00  0.69042185640E+03  0.18429779206E+04  0.17087671801E+04 0.  0.
        5    1    3    3  502    0  0.26137088407E+03  0.65623737320E+02 -0.52922563625E+03  0.59390494021E+03  0.46999998093E+01 0. -1.
       -5    1    3    3    0  502 -0.26137088407E+03 -0.65623737320E+02  0.12196474926E+04  0.12490729804E+04  0.46999998093E+01 0.  1.
</event>
<event>
 5   0  0.1285639E-04  0.1661858E+04  0.7818609E-02  0.8783422E-01
       -2   -1    0    0    0  501  0.00000000000E+00  0.00000000000E+00  0.33566611426E+03  0.33566611427E+03  0.25500000920E-02 0. -1.
        2   -1    0    0  501    0  0.00000000000E+00  0.00000000000E+00 -0.20569330832E+04  0.20569330832E+04  0.25500000920E-02 0.  1.
    10030    2    1    2    0    0  0.00000000000E+00  0.00000000000E+00 -0.17212669690E+04  0.23925991975E+04  0.16618576778E+04 0.  0.
        4    1    3    3  502    0  0.12724710898E+03  0.20634285833E+03 -0.20048860919E+04  0.20194898010E+04  0.12699999809E+01 0.  1.
       -4    1    3    3    0  502 -0.12724710898E+03 -0.20634285833E+03  0.28361912296E+03  0.37310939647E+03  0.12699999809E+01 0. -1.
</event>
<event>
 5   0  0.1269175E-04  0.1700036E+04  0.7818609E-02  0.8761344E-01
       -2   -1    0    0    0  501  0.00000000000E+00  0.00000000000E+00  0.48448088977E+03  0.48448088978E+03  0.25500000920E-02 0.  1.
        2   -1    0    0  501    0  0.00000000000E+00  0.00000000000E+00 -0.14913496652E+04  0.14913496652E+04  0.25500000920E-02 0. -1.
    10030    2    1    2    0    0  0.00000000000E+00  0.00000000000E+00 -0.10068687754E+04  0.19758305550E+04  0.17000357794E+04 0.  0.
        2    1    3    3  502    0 -0.35882229033E+03 -0.19866519426E+03  0.36186749067E+03  0.54696377966E+03  0.25500000920E-02 0.  1.
       -2    1    3    3    0  502  0.35882229033E+03  0.19866519426E+03 -0.13687362661E+04  0.14288667753E+04  0.25500000920E-02 0. -1.
</event>
<event>
 5   0  0.6564887E-05  0.1669063E+04  0.7818609E-02  0.8779208E-01
       -1   -1    0    0    0  501  0.00000000000E+00  0.00000000000E+00  0.67017335026E+03  0.67017335028E+03  0.50400001928E-02 0. -1.
        1   -1    0    0  501    0  0.00000000000E+00  0.00000000000E+00 -0.10391980688E+04  0.10391980688E+04  0.50400001928E-02 0.  1.
    10030    2    1    2    0    0  0.00000000000E+00  0.00000000000E+00 -0.36902471855E+03  0.17093714191E+04  0.16690630322E+04 0.  0.
        4    1    3    3  502    0 -0.75217577231E+03  0.18367214928E+03  0.13435447927E+03  0.78584768872E+03  0.12699999809E+01 0. -1.
       -4    1    3    3    0  502  0.75217577231E+03 -0.18367214928E+03 -0.50337919782E+03  0.92352373038E+03  0.12699999809E+01 0.  1.
</event>
<event>
 5   0  0.1333546E-04  0.1690755E+04  0.7818609E-02  0.8766655E-01
        2   -1    0    0  501    0  0.00000000000E+00  0.00000000000E+00  0.88712820129E+03  0.88712820129E+03  0.25500000920E-02 0.  1.
       -2   -1    0    0    0  501  0.00000000000E+00  0.00000000000E+00 -0.80559181156E+03  0.80559181156E+03  0.25500000920E-02 0. -1.
    10030    2    1    2    0    0  0.00000000000E+00  0.00000000000E+00  0.81536389731E+02  0.16927200129E+04  0.16907551151E+04 0.  0.
        5    1    3    3  502    0 -0.44324157807E+03  0.68542419338E+03  0.26095947147E+03  0.85696636874E+03  0.46999998093E+01 0.  1.
       -5    1    3    3    0  502  0.44324157807E+03 -0.68542419338E+03 -0.17942308174E+03  0.83575364412E+03  0.46999998093E+01 0. -1.
</event>
<event>
 5   0  0.6601906E-05  0.1696594E+04  0.7818609E-02  0.8763309E-01
       -1   -1    0    0    0  501  0.00000000000E+00  0.00000000000E+00  0.99075162138E+03  0.99075162139E+03  0.50400001928E-02 0. -1.
        1   -1    0    0  501    0  0.00000000000E+00  0.00000000000E+00 -0.72632539459E+03  0.72632539460E+03  0.50400001928E-02 0.  1.
    10030    2    1    2    0    0  0.00000000000E+00  0.00000000000E+00  0.26442622679E+03  0.17170770160E+04  0.16965943090E+04 0.  0.
        1    1    3    3  502    0 -0.13975036154E+03 -0.16232449470E+03  0.96293237301E+03  0.98646751601E+03  0.50400001928E-02 0. -1.
       -1    1    3    3    0  502  0.13975036154E+03  0.16232449470E+03 -0.69850614622E+03  0.73060949998E+03  0.50400001928E-02 0.  1.
</event>
<event>
 5   0  0.1285639E-04  0.1680522E+04  0.7818609E-02  0.8772552E-01
       -2   -1    0    0    0  501  0.00000000000E+00  0.00000000000E+00  0.98995099321E+03  0.98995099321E+03  0.25500000920E-02 0. -1.
        2   -1    0    0  501    0  0.00000000000E+00  0.00000000000E+00 -0.71320593198E+03  0.71320593199E+03  0.25500000920E-02 0.  1.
    10030    2    1    2    0    0  0.00000000000E+00  0.00000000000E+00  0.27674506123E+03  0.17031569252E+04  0.16805224435E+04 0.  0.
        4    1    3    3  502    0 -0.20686093562E+03 -0.44723337522E+03  0.82814813203E+03  0.96365973252E+03  0.12699999809E+01 0. -1.
       -4    1    3    3    0  502  0.20686093562E+03  0.44723337522E+03 -0.55140307080E+03  0.73949719268E+03  0.12699999809E+01 0.  1.
</event>
<event>
 5   0  0.6539134E-05  0.1647330E+04  0.7818609E-02  0.8791988E-01
        1   -1    0    0  501    0  0.00000000000E+00  0.00000000000E+00  0.11358456318E+04  0.11358456319E+04  0.50400001928E-02 0. -1.
       -1   -1    0    0    0  501  0.00000000000E+00  0.00000000000E+00 -0.59728509293E+03  0.59728509295E+03  0.50400001928E-02 0.  1.
    10030    2    1    2    0    0  0.00000000000E+00  0.00000000000E+00  0.53856053892E+03  0.17331307248E+04  0.16473295527E+04 0.  0.
        2    1    3    3  502    0  0.59921112704E+03 -0.56501730470E+03  0.28104926040E+03  0.87022250956E+03  0.25500000920E-02 0.  1.
       -2    1    3    3    0  502 -0.59921112704E+03  0.56501730470E+03  0.25751127852E+03  0.86290821525E+03  0.25500000920E-02 0. -1.
</event>
<event>
 5   0  0.6539134E-05  0.1705102E+04  0.7818609E-02  0.8758460E-01
        1   -1    0    0  501    0  0.00000000000E+00  0.00000000000E+00  0.66255484739E+03  0.66255484741E+03  0.50400001928E-02 0. -1.
       -1   -1    0    0    0  501  0.00000000000E+00  0.00000000000E+00 -0.10970304035E+04  0.10970304035E+04  0.50400001928E-02 0.  1.
    10030    2    1    2    0    0  0.00000000000E+00  0.00000000000E+00 -0.43447555614E+03  0.17595852510E+04  0.17051015355E+04 0.  0.
        2    1    3    3  502    0 -0.14766289060E+03  0.30515931580E+03  0.59000853356E+03  0.68046793235E+03  0.25500000920E-02 0. -1.
       -2    1    3    3    0  502  0.14766289060E+03 -0.30515931580E+03 -0.10244840897E+04  0.10791173186E+04  0.25500000920E-02 0.  1.
</event>
<event>
 5   0  0.1269175E-04  0.1690990E+04  0.7818609E-02  0.8766520E-01
        2   -1    0    0  501    0  0.00000000000E+00  0.00000000000E+00  0.12038531352E+04  0.12038531352E+04  0.25500000920E-02 0. -1.
       -2   -1    0    0    0  501  0.00000000000E+00  0.00000000000E+00 -0.59381175538E+03  0.59381175539E+03  0.25500000920E-02 0.  1.
    10030    2    1    2    0    0  0.00000000000E+00  0.00000000000E+00  0.61004137986E+03  0.17976648906E+04  0.16909904121E+04 0.  0.
        2    1    3    3  502    0  0.72964108383E+03 -0.35802402551E+03  0.57286003583E+02  0.81476315593E+03  0.25500000920E-02 0.  1.
       -2    1    3    3    0  502 -0.72964108383E+03  0.35802402551E+03  0.55275537627E+03  0.98290173469E+03  0.25500000920E-02 0. -1.
</event>
<event>
 5   0  0.6834837E-05  0.1705832E+04  0.7818609E-02  0.8758045E-01
        1   -1    0    0  501    0  0.00000000000E+00  0.00000000000E+00  0.59722260291E+03  0.59722260293E+03  0.50400001928E-02 0.  1.
       -1   -1    0    0    0  501  0.00000000000E+00  0.00000000000E+00 -0.12180811273E+04  0.12180811273E+04  0.50400001928E-02 0. -1.
    10030    2    1    2    0    0  0.00000000000E+00  0.00000000000E+00 -0.62085852438E+03  0.18153037302E+04  0.17058318574E+04 0.  0.
        5    1    3    3  502    0 -0.38424027110E+03  0.11727883383E+03  0.49021562029E+03  0.63382044395E+03  0.46999998093E+01 0.  1.
       -5    1    3    3    0  502  0.38424027110E+03 -0.11727883383E+03 -0.11110741447E+04  0.11814832863E+04  0.46999998093E+01 0. -1.
</event>
<event>
 5   0  0.6564887E-05  0.1675569E+04  0.7818609E-02  0.8775422E-01
       -1   -1    0    0    0  501  0.00000000000E+00  0.00000000000E+00  0.71701904221E+03  0.71701904223E+03  0.50400001928E-02 0. -1.
        1   -1    0    0  501    0  0.00000000000E+00  0.00000000000E+00 -0.97889037273E+03  0.97889037274E+03  0.50400001928E-02 0.  1.
    10030    2    1    2    0    0  0.00000000000E+00  0.00000000000E+00 -0.26187133052E+03  0.16959094150E+04  0.16755692018E+04 0.  0.
        4    1    3    3  502    0 -0.28485614052E+03  0.14408914837E+03 -0.91492017573E+03  0.96901250989E+03  0.12699999809E+01 0.  1.
       -4    1    3    3    0  502  0.28485614052E+03 -0.14408914837E+03  0.65304884521E+03  0.72689690507E+03  0.12699999809E+01 0. -1.
</event>
<event>
 5   0  0.6834837E-05  0.1687008E+04  0.7818609E-02  0.8768809E-01
       -1   -1    0    0    0  501  0.00000000000E+00  0.00000000000E+00  0.48924455091E+03  0.48924455094E+03  0.50400001928E-02 0.  1.
        1   -1    0    0  501    0  0.00000000000E+00  0.00000000000E+00 -0.14542813885E+04  0.14542813885E+04  0.50400001928E-02 0. -1.
    10030    2    1    2    0    0  0.00000000000E+00  0.00000000000E+00 -0.96503683758E+03  0.19435259394E+04  0.16870082926E+04 0.  0.
        5    1    3    3  502    0 -0.65593818892E+03  0.47546148453E+03 -0.75308853950E+03  0.11061116441E+04  0.46999998093E+01 0. -1.
       -5    1    3    3    0  502  0.65593818892E+03 -0.47546148453E+03 -0.21194829809E+03  0.83741429532E+03  0.46999998093E+01 0.  1.
</event>
<event>
 5   0  0.1269175E-04  0.1702145E+04  0.7818609E-02  0.8760142E-01
        2   -1    0    0  501    0  0.00000000000E+00  0.00000000000E+00  0.81983172879E+03  0.81983172879E+03  0.25500000920E-02 0.  1.
       -2   -1    0    0    0  501  0.00000000000E+00  0.00000000000E+00 -0.88350329595E+03  0.88350329596E+03  0.25500000920E-02 0. -1.
    10030    2    1    2    0    0  0.00000000000E+00  0.00000000000E+00 -0.63671567165E+02  0.17033350248E+04  0.17021445703E+04 0.  0.
        2    1    3    3  502    0  0.51210968470E+03 -0.58807741273E+03 -0.37300334009E+03  0.86442053669E+03  0.25500000920E-02 0.  1.
       -2    1    3    3    0  502 -0.51210968470E+03  0.58807741273E+03  0.30933177293E+03  0.83891448806E+03  0.25500000920E-02 0. -1.
</event>
<event>
 5   0  0.1269175E-04  0.1699327E+04  0.7818609E-02  0.8761749E-01
        2   -1    0    0  501    0  0.00000000000E+00  0.00000000000E+00  0.14324200406E+04  0.14324200406E+04  0.25500000920E-02 0.  1.
       -2   -1    0    0    0  501  0.00000000000E+00  0.00000000000E+00 -0.50399162451E+03  0.50399162452E+03  0.25500000920E-02 0. -1.
    10030    2    1    2    0    0  0.00000000000E+00  0.00000000000E+00  0.92842841608E+03  0.19364116651E+04  0.16993265763E+04 0.  0.
        2    1    3    3  502    0 -0.15999368079E+03  0.69943139594E+03 -0.54391832267E+02  0.71955592343E+03  0.25500000920E-02 0. -1.
       -2    1    3    3    0  502  0.15999368079E+03 -0.69943139594E+03  0.98282024835E+03  0.12168557417E+04  0.25500000920E-02 0.  1.
</event>
<event>
 5   0  0.6601906E-05  0.1694978E+04  0.7818609E-02  0.8764234E-01
        1   -1    0    0  501    0  0.00000000000E+00  0.00000000000E+00  0.96099214896E+03  0.96099214898E+03  0.50400001928E-02 0.  1.
       -1   -1    0    0    0  501  0.00000000000E+00  0.00000000000E+00 -0.74739166164E+03  0.74739166166E+03  0.50400001928E-02 0. -1.
    10030    2    1    2    0    0  0.00000000000E+00  0.00000000000E+00  0.21360048732E+03  0.17083838106E+04  0.16949778985E+04 0.  0.
        1    1    3    3  502    0  0.78297144510E+03  0.25653232656E+03 -0.93224410344E+02  0.82918267536E+03  0.50400001928E-02 0. -1.
       -1    1    3    3    0  502 -0.78297144510E+03 -0.25653232656E+03  0.30682489766E+03  0.87920113527E+03  0.50400001928E-02 0.  1.
</event>
<event>
 5   0  0.1393870E-04  0.1694697E+04  0.7818609E-02  0.8764395E-01
       -2   -1    0    0    0  501  0.00000000000E+00  0.00000000000E+00  0.96720414491E+03  0.96720414491E+03  0.25500000920E-02 0.  1.
        2   -1    0    0  501    0  0.00000000000E+00  0.00000000000E+00 -0.74234489421E+03  0.74234489421E+03  0.25500000920E-02 0. -1.
    10030    2    1    2    0    0  0.00000000000E+00  0.00000000000E+00  0.22485925070E+03  0.17095490391E+04  0.16946965022E+04 0.  0.
        3    1    3    3  502    0  0.37858361184E+03  0.75469142857E+03  0.40288213544E+02  0.84528566406E+03  0.10100000352E+00 0. -1.
       -3    1    3    3    0  502 -0.37858361184E+03 -0.75469142857E+03  0.18457103715E+03  0.86426337506E+03  0.10100000352E+00 0.  1.
</event>
<event>
 5   0  0.1393870E-04  0.1696176E+04  0.7818609E-02  0.8763548E-01
       -2   -1    0    0    0  501  0.00000000000E+00  0.00000000000E+00  0.85592220422E+03  0.85592220422E+03  0.25500000920E-02 0.  1.
        2   -1    0    0  501    0  0.00000000000E+00  0.00000000000E+00 -0.84032563806E+03  0.84032563806E+03  0.25500000920E-02 0. -1.
    10030    2    1    2    0    0  0.00000000000E+00  0.00000000000E+00  0.15596566155E+02  0.16962478423E+04  0.16961761375E+04 0.  0.
        3    1    3    3  502    0 -0.11273777730E+03 -0.71621692129E+03  0.44779060623E+03  0.85216953830E+03  0.10100000352E+00 0.  1.
       -3    1    3    3    0  502  0.11273777730E+03  0.71621692129E+03 -0.43219404008E+03  0.84407830398E+03  0.10100000352E+00 0. -1.
</event>
<event>
 5   0  0.1285639E-04  0.1705981E+04  0.7818609E-02  0.8757961E-01
       -2   -1    0    0    0  501  0.00000000000E+00  0.00000000000E+00  0.58910197870E+03  0.58910197870E+03  0.25500000920E-02 0. -1.
        2   -1    0    0  501    0  0.00000000000E+00  0.00000000000E+00 -0.12350879654E+04  0.12350879654E+04  0.25500000920E-02 0.  1.
    10030    2    1    2    0    0  0.00000000000E+00  0.00000000000E+00 -0.64598598668E+03  0.18241899441E+04  0.17059809662E+04 0.  0.
        4    1    3    3  502    0 -0.55474919276E+03 -0.51509383928E+03  0.97338751252E+02  0.76324620898E+03  0.12699999809E+01 0. -1.
       -4    1    3    3    0  502  0.55474919276E+03  0.51509383928E+03 -0.74332473793E+03  0.10609437351E+04  0.12699999809E+01 0.  1.
</event>
<event>
 5   0  0.6564887E-05  0.1700499E+04  0.7818609E-02  0.8761080E-01
        1   -1    0    0  501    0  0.00000000000E+00  0.00000000000E+00  0.51213741146E+03  0.51213741148E+03  0.50400001928E-02 0.  1.
       -1   -1    0    0    0  501  0.00000000000E+00  0.00000000000E+00 -0.14115831865E+04  0.14115831865E+04  0.50400001928E-02 0. -1.
    10030    2    1    2    0    0  0.00000000000E+00  0.00000000000E+00 -0.89944577508E+03  0.19237205980E+04  0.17004994081E+04 0.  0.
        4    1    3    3  502    0 -0.98944023406E+02 -0.57221099203E+03 -0.11523009939E+04  0.12903544213E+04  0.12699999809E+01 0. -1.
       -4    1    3    3    0  502  0.98944023406E+02  0.57221099203E+03  0.25285521884E+03  0.63336617669E+03  0.12699999809E+01 0.  1.
</event>
<event>
 5   0  0.6564887E-05  0.1697540E+04  0.7818609E-02  0.8762769E-01
       -1   -1    0    0    0  501  0.00000000000E+00  0.00000000000E+00  0.43723692996E+03  0.43723692999E+03  0.50400001928E-02 0.  1.
        1   -1    0    0  501    0  0.00000000000E+00  0.00000000000E+00 -0.16476426419E+04  0.16476426419E+04  0.50400001928E-02 0. -1.
    10030    2    1    2    0    0  0.00000000000E+00  0.00000000000E+00 -0.12104057119E+04  0.20848795719E+04  0.16975396437E+04 0.  0.
        4    1    3    3  502    0 -0.27557060080E+03 -0.80234019577E+03 -0.57225537265E+03  0.10233116682E+04  0.12699999809E+01 0.  1.
       -4    1    3    3    0  502  0.27557060080E+03  0.80234019577E+03 -0.63815033927E+03  0.10615679037E+04  0.12699999809E+01 0. -1.
</event>
<event>
 5   0  0.1333546E-04  0.1702870E+04  0.7818609E-02  0.8759729E-01
       -2   -1    0    0    0  501  0.00000000000E+00  0.00000000000E+00  0.73731838066E+03  0.73731838067E+03  0.25500000920E-02 0.  1.
        2   -1    0    0  501    0  0.00000000000E+00  0.00000000000E+00 -0.98321334549E+03  0.98321334550E+03  0.25500000920E-02 0. -1.
    10030    2    1    2    0    0  0.00000000000E+00  0.00000000000E+00 -0.24589496483E+03  0.17205317262E+04  0.17028696624E+04 0.  0.
        5    1    3    3  502    0  0.45031290447E+03  0.54990612499E+03  0.35067962647E+03  0.79257602074E+03  0.46999998093E+01 0.  1.
       -5    1    3    3    0  502 -0.45031290447E+03 -0.54990612499E+03 -0.59657459130E+03  0.92795570542E+03  0.46999998093E+01 0. -1.
</event>
<event>
 5   0  0.6564887E-05  0.1740267E+04  0.7818609E-02  0.8738726E-01
        1   -1    0    0  501    0  0.00000000000E+00  0.00000000000E+00  0.12530126547E+04  0.12530126548E+04  0.50400001928E-02 0. -1.
       -1   -1    0    0    0  501  0.00000000000E+00  0.00000000000E+00 -0.60424949567E+03  0.60424949569E+03  0.50400001928E-02 0.  1.
    10030    2    1    2    0    0  0.00000000000E+00  0.00000000000E+00  0.64876315908E+03  0.18572621504E+04  0.17402669505E+04 0.  0.
        4    1    3    3  502    0  0.73422384654E+02  0.84498996704E+03  0.11707605671E+03  0.85621685742E+03  0.12699999809E+01 0. -1.
       -4    1    3    3    0  502 -0.73422384654E+02 -0.84498996704E+03  0.53168710237E+03  0.10010452930E+04  0.12699999809E+01 0.  1.
</event>
<event>
 5   0  0.1393870E-04  0.1705993E+04  0.7818609E-02  0.8757954E-01
        2   -1    0    0  501    0  0.00000000000E+00  0.00000000000E+00  0.15723498291E+04  0.15723498291E+04  0.25500000920E-02 0.  1.
       -2   -1    0    0    0  501  0.00000000000E+00  0.00000000000E+00 -0.46274893807E+03  0.46274893808E+03  0.25500000920E-02 0. -1.
    10030    2    1    2    0    0  0.00000000000E+00  0.00000000000E+00  0.11096008910E+04  0.20350987671E+04  0.17059932165E+04 0.  0.
        3    1    3    3  502    0  0.32253411075E+03  0.76780816234E+03  0.77490981966E+03  0.11375600492E+04  0.10100000352E+00 0. -1.
       -3    1    3    3    0  502 -0.32253411075E+03 -0.76780816234E+03  0.33469107135E+03  0.89753871794E+03  0.10100000352E+00 0.  1.
</event>
<event>
 5   0  0.1333546E-04  0.1696888E+04  0.7818609E-02  0.8763141E-01
        2   -1    0    0  501    0  0.00000000000E+00  0.00000000000E+00  0.96482649545E+03  0.96482649546E+03  0.25500000920E-02 0. -1.
       -2   -1    0    0    0  501  0.00000000000E+00  0.00000000000E+00 -0.74609992138E+03  0.74609992139E+03  0.25500000920E-02 0.  1.
    10030    2    1    2    0    0  0.00000000000E+00  0.00000000000E+00  0.21872657407E+03  0.17109264168E+04  0.16968877068E+04 0.  0.
        5    1    3    3  502    0  0.79161919573E+03 -0.23751288052E+03  0.30268258629E+03  0.88017734435E+03  0.46999998093E+01 0. -1.
       -5    1    3    3    0  502 -0.79161919573E+03  0.23751288052E+03 -0.83956012217E+02  0.83074907249E+03  0.46999998093E+01 0.  1.
</event>
<event>
 5   0  0.6564887E-05  0.1708694E+04  0.7818609E-02  0.8756421E-01
        1   -1    0    0  501    0  0.00000000000E+00  0.00000000000E+00  0.11014743856E+04  0.11014743856E+04  0.50400001928E-02 0. -1.
       -1   -1    0    0    0  501  0.00000000000E+00  0.00000000000E+00 -0.66266532304E+03  0.66266532306E+03  0.50400001928E-02 0.  1.
    10030    2    1    2    0    0  0.00000000000E+00  0.00000000000E+00  0.43880906258E+03  0.17641397087E+04  0.17086940974E+04 0.  0.
        4    1    3    3  502    0 -0.33556323666E+03 -0.68745743438E+03  0.61215183435E+03  0.97976113981E+03  0.12699999809E+01 0. -1.
       -4    1    3    3    0  502  0.33556323666E+03  0.68745743438E+03 -0.17334277177E+03  0.78437856888E+03  0.12699999809E+01 0.  1.
</event>
<event>
 5   0  0.6615842E-05  0.1701285E+04  0.7818609E-02  0.8760632E-01
        1   -1    0    0  501    0  0.00000000000E+00  0.00000000000E+00  0.63737242966E+03  0.63737242968E+03  0.50400001928E-02 0.  1.
       -1   -1    0    0    0  501  0.00000000000E+00  0.00000000000E+00 -0.11352742418E+04  0.11352742418E+04  0.50400001928E-02 0. -1.
    10030    2    1    2    0    0  0.00000000000E+00  0.00000000000E+00 -0.49790181211E+03  0.17726466715E+04  0.17012848108E+04 0.  0.
        3    1    3    3  502    0  0.63714393776E+03  0.54410214644E+03 -0.40206005019E+03  0.92932870253E+03  0.10100000352E+00 0.  1.
       -3    1    3    3    0  502 -0.63714393776E+03 -0.54410214644E+03 -0.95841761917E+02  0.84331796893E+03  0.10100000352E+00 0. -1.
</event>
<event>
 5   0  0.6564887E-05  0.1699490E+04  0.7818609E-02  0.8761655E-01
       -1   -1    0    0    0  501  0.00000000000E+00  0.00000000000E+00  0.94085907374E+03  0.94085907375E+03  0.50400001928E-02 0. -1.
        1   -1    0    0  501    0  0.00000000000E+00  0.00000000000E+00 -0.76745479628E+03  0.76745479629E+03  0.50400001928E-02 0.  1.
    10030    2    1    2    0    0  0.00000000000E+00  0.00000000000E+00  0.17340427746E+03  0.17083138700E+04  0.16994902869E+04 0.  0.
        4    1    3    3  502    0 -0.55359004697E+03  0.61963379796E+03 -0.92146366141E+02  0.83600272091E+03  0.12699999809E+01 0. -1.
       -4    1    3    3    0  502  0.55359004697E+03 -0.61963379796E+03  0.26555064360E+03  0.87231114913E+03  0.12699999809E+01 0.  1.
</event>
<event>
 5   0  0.1333546E-04  0.1708884E+04  0.7818609E-02  0.8756313E-01
        2   -1    0    0  501    0  0.00000000000E+00  0.00000000000E+00  0.83239285034E+03  0.83239285035E+03  0.25500000920E-02 0.  1.
       -2   -1    0    0    0  501  0.00000000000E+00  0.00000000000E+00 -0.87707556644E+03  0.87707556644E+03  0.25500000920E-02 0. -1.
    10030    2    1    2    0    0  0.00000000000E+00  0.00000000000E+00 -0.44682716092E+02  0.17094684168E+04  0.17088843503E+04 0.  0.
        5    1    3    3  502    0 -0.54686841959E+03  0.25343488861E+03 -0.62815137217E+03  0.87056909402E+03  0.46999998093E+01 0. -1.
       -5    1    3    3    0  502  0.54686841959E+03 -0.25343488861E+03  0.58346865608E+03  0.83889932276E+03  0.46999998093E+01 0.  1.
</event>
<event>
 5   0  0.6564887E-05  0.1671986E+04  0.7818609E-02  0.8777505E-01
       -1   -1    0    0    0  501  0.00000000000E+00  0.00000000000E+00  0.36608891804E+03  0.36608891808E+03  0.50400001928E-02 0. -1.
        1   -1    0    0  501    0  0.00000000000E+00  0.00000000000E+00 -0.19090572353E+04  0.19090572353E+04  0.50400001928E-02 0.  1.
    10030    2    1    2    0    0  0.00000000000E+00  0.00000000000E+00 -0.15429683173E+04  0.22751461534E+04  0.16719864806E+04 0.  0.
        4    1    3    3  502    0 -0.49134944142E+02  0.44577111210E+03  0.18854673508E+03  0.48649523258E+03  0.12699999809E+01 0. -1.
       -4    1    3    3    0  502  0.49134944142E+02 -0.44577111210E+03 -0.17315150524E+04  0.17886509208E+04  0.12699999809E+01 0.  1.
</event>
<event>
 5   0  0.6539134E-05  0.1697682E+04  0.7818609E-02  0.8762688E-01
       -1   -1    0    0    0  501  0.00000000000E+00  0.00000000000E+00  0.56359829060E+03  0.56359829062E+03  0.50400001928E-02 0.  1.
        1   -1    0    0  501    0  0.00000000000E+00  0.00000000000E+00 -0.12784471965E+04  0.12784471965E+04  0.50400001928E-02 0. -1.
    10030    2    1    2    0    0  0.00000000000E+00  0.00000000000E+00 -0.71484890592E+03  0.18420454872E+04  0.16976815421E+04 0.  0.
        2    1    3    3  502    0 -0.78253948064E+03 -0.29209160030E+03 -0.19342561238E+03  0.85737915140E+03  0.25500000920E-02 0. -1.
       -2    1    3    3    0  502  0.78253948064E+03  0.29209160030E+03 -0.52142329354E+03  0.98466633576E+03  0.25500000920E-02 0.  1.
</event>
<event>
 5   0  0.6834837E-05  0.1699783E+04  0.7818609E-02  0.8761488E-01
       -1   -1    0    0    0  501  0.00000000000E+00  0.00000000000E+00  0.83390600182E+03  0.83390600184E+03  0.50400001928E-02 0. -1.
        1   -1    0    0  501    0  0.00000000000E+00  0.00000000000E+00 -0.86618318208E+03  0.86618318210E+03  0.50400001928E-02 0.  1.
    10030    2    1    2    0    0  0.00000000000E+00  0.00000000000E+00 -0.32277180259E+02  0.17000891839E+04  0.16997827558E+04 0.  0.
        5    1    3    3  502    0  0.32169989830E+03  0.35701159217E+03  0.68494794738E+03  0.83673405699E+03  0.46999998093E+01 0. -1.
       -5    1    3    3    0  502 -0.32169989830E+03 -0.35701159217E+03 -0.71722512764E+03  0.86335512694E+03  0.46999998093E+01 0.  1.
</event>
<event>
 5   0  0.1269175E-04  0.1704741E+04  0.7818609E-02  0.8758665E-01
       -2   -1    0    0    0  501  0.00000000000E+00  0.00000000000E+00  0.59407423843E+03  0.59407423844E+03  0.25500000920E-02 0. -1.
        2   -1    0    0  501    0  0.00000000000E+00  0.00000000000E+00 -0.12229708608E+04  0.12229708608E+04  0.25500000920E-02 0.  1.
    10030    2    1    2    0    0  0.00000000000E+00  0.00000000000E+00 -0.62889662240E+03  0.18170450993E+04  0.17047410159E+04 0.  0.
        2    1    3    3  502    0 -0.60672695818E+03  0.12818706347E+03 -0.93776884409E+03  0.11242597253E+04  0.25500000920E-02 0.  1.
       -2    1    3    3    0  502  0.60672695818E+03 -0.12818706347E+03  0.30887222169E+03  0.69278537395E+03  0.25500000920E-02 0. -1.
</event>
<event>
 5   0  0.1285639E-04  0.1701905E+04  0.7818609E-02  0.8760278E-01
       -2   -1    0    0    0  501  0.00000000000E+00  0.00000000000E+00  0.58322247440E+03  0.58322247441E+03  0.25500000920E-02 0. -1.
        2   -1    0    0  501    0  0.00000000000E+00  0.00000000000E+00 -0.12415852292E+04  0.12415852292E+04  0.25500000920E-02 0.  1.
    10030    2    1    2    0    0  0.00000000000E+00  0.00000000000E+00 -0.65836275483E+03  0.18248077036E+04  0.17019052965E+04 0.  0.
        4    1    3    3  502    0  0.33956910960E+03  0.72771734237E+03 -0.63100376119E+03  0.10212967591E+04  0.12699999809E+01 0.  1.
       -4    1    3    3    0  502 -0.33956910960E+03 -0.72771734237E+03 -0.27358993639E+02  0.80351094455E+03  0.12699999809E+01 0. -1.
</event>
<event>
 5   0  0.1393870E-04  0.1701051E+04  0.7818609E-02  0.8760765E-01
       -2   -1    0    0    0  501  0.00000000000E+00  0.00000000000E+00  0.48534933715E+03  0.48534933715E+03  0.25500000920E-02 0. -1.
        2   -1    0    0  501    0  0.00000000000E+00  0.00000000000E+00 -0.14904603217E+04  0.14904603217E+04  0.25500000920E-02 0.  1.
    10030    2    1    2    0    0  0.00000000000E+00  0.00000000000E+00 -0.10051109846E+04  0.19758096589E+04  0.17010513563E+04 0.  0.
        3    1    3    3  502    0  0.14187371111E+03  0.72334308175E+03 -0.99540332414E+03  0.12386206650E+04  0.10100000352E+00 0.  1.
       -3    1    3    3    0  502 -0.14187371111E+03 -0.72334308175E+03 -0.97076604144E+01  0.73718899387E+03  0.10100000352E+00 0. -1.
</event>
<event>
 5   0  0.6601906E-05  0.1703075E+04  0.7818609E-02  0.8759612E-01
        1   -1    0    0  501    0  0.00000000000E+00  0.00000000000E+00  0.78715038191E+03  0.78715038192E+03  0.50400001928E-02 0.  1.
       -1   -1    0    0    0  501  0.00000000000E+00  0.00000000000E+00 -0.92119186508E+03  0.92119186509E+03  0.50400001928E-02 0. -1.
    10030    2    1    2    0    0  0.00000000000E+00  0.00000000000E+00 -0.13404148317E+03  0.17083422470E+04  0.17030754868E+04 0.  0.
        1    1    3    3  502    0  0.27605714702E+03 -0.33142016348E+03  0.66946344426E+03  0.79638444009E+03  0.50400001928E-02 0.  1.
       -1    1    3    3    0  502 -0.27605714702E+03  0.33142016348E+03 -0.80350492743E+03  0.91195780693E+03  0.50400001928E-02 0. -1.
</event>
<event>
 5   0  0.6615842E-05  0.1702541E+04  0.7818609E-02  0.8759916E-01
        1   -1    0    0  501    0  0.00000000000E+00  0.00000000000E+00  0.11633495997E+04  0.11633495998E+04  0.50400001928E-02 0. -1.
       -1   -1    0    0    0  501  0.00000000000E+00  0.00000000000E+00 -0.62290968659E+03  0.62290968661E+03  0.50400001928E-02 0.  1.
    10030    2    1    2    0    0  0.00000000000E+00  0.00000000000E+00  0.54043991315E+03  0.17862592864E+04  0.17025413177E+04 0.  0.
        3    1    3    3  502    0 -0.51749605778E+03 -0.66346722044E+03  0.13475558525E+03  0.85214435418E+03  0.10100000352E+00 0. -1.
       -3    1    3    3    0  502  0.51749605778E+03  0.66346722044E+03  0.40568432791E+03  0.93411493218E+03  0.10100000352E+00 0.  1.
</event>
<event>
 5   0  0.6834837E-05  0.1700759E+04  0.7818609E-02  0.8760931E-01
        1   -1    0    0  501    0  0.00000000000E+00  0.00000000000E+00  0.70370612443E+03  0.70370612445E+03  0.50400001928E-02 0. -1.
       -1   -1    0    0    0  501  0.00000000000E+00  0.00000000000E+00 -0.10276244332E+04  0.10276244332E+04  0.50400001928E-02 0.  1.
    10030    2    1    2    0    0  0.00000000000E+00  0.00000000000E+00 -0.32391830880E+03  0.17313305577E+04  0.17007593684E+04 0.  0.
        5    1    3    3  502    0 -0.51057677343E+03 -0.25666324845E+02  0.52979671939E+03  0.73624320416E+03  0.46999998093E+01 0. -1.
       -5    1    3    3    0  502  0.51057677343E+03  0.25666324845E+02 -0.85371502819E+03  0.99508735353E+03  0.46999998093E+01 0.  1.
</event>
<event>
 5   0  0.6834837E-05  0.1702722E+04  0.7818609E-02  0.8759813E-01
       -1   -1    0    0    0  501  0.00000000000E+00  0.00000000000E+00  0.10059778740E+04  0.10059778740E+04  0.50400001928E-02 0.  1.
        1   -1    0    0  501    0  0.00000000000E+00  0.00000000000E+00 -0.72050869790E+03  0.72050869792E+03  0.50400001928E-02 0. -1.
    10030    2    1    2    0    0  0.00000000000E+00  0.00000000000E+00  0.28546917606E+03  0.17264865719E+04  0.17027223005E+04 0.  0.
        5    1    3    3  502    0  0.26824387346E+03  0.28270868729E+03  0.91020983822E+03  0.99014292761E+03  0.46999998093E+01 0.  1.
       -5    1    3    3    0  502 -0.26824387346E+03 -0.28270868729E+03 -0.62474066216E+03  0.73634364428E+03  0.46999998093E+01 0. -1.
</event>
<event>
 5   0  0.1269175E-04  0.1700906E+04  0.7818609E-02  0.8760848E-01
        2   -1    0    0  501    0  0.00000000000E+00  0.00000000000E+00  0.18415560024E+04  0.18415560024E+04  0.25500000920E-02 0. -1.
       -2   -1    0    0    0  501  0.00000000000E+00  0.00000000000E+00 -0.39274967392E+03  0.39274967393E+03  0.25500000920E-02 0.  1.
    10030    2    1    2    0    0  0.00000000000E+00  0.00000000000E+00  0.14488063285E+04  0.22343056763E+04  0.17009062519E+04 0.  0.
        2    1    3    3  502    0 -0.16485371874E+03  0.83390850856E+03  0.75891779528E+03  0.11395333998E+04  0.25500000920E-02 0. -1.
       -2    1    3    3    0  502  0.16485371874E+03 -0.83390850856E+03  0.68988853318E+03  0.10947722765E+04  0.25500000920E-02 0.  1.
</event>
<event>
 5   0  0.1269175E-04  0.1694952E+04  0.7818609E-02  0.8764249E-01
        2   -1    0    0  501    0  0.00000000000E+00  0.00000000000E+00  0.14991947644E+04  0.14991947644E+04  0.25500000920E-02 0. -1.
       -2   -1    0    0    0  501  0.00000000000E+00  0.00000000000E+00 -0.47906748141E+03  0.47906748141E+03  0.25500000920E-02 0.  1.
    10030    2    1    2    0    0  0.00000000000E+00  0.00000000000E+00  0.10201272830E+04  0.19782622458E+04  0.16949518694E+04 0.  0.
        2    1    3    3  502    0  0.10141727017E+03  0.62352226289E+03  0.11694256295E+04  0.13291432496E+04  0.25500000920E-02 0. -1.
       -2    1    3    3    0  502 -0.10141727017E+03 -0.62352226289E+03 -0.14929834649E+03  0.64911899624E+03  0.25500000920E-02 0.  1.
</event>
<event>
 5   0  0.6615842E-05  0.1692515E+04  0.7818609E-02  0.8765645E-01
       -1   -1    0    0    0  501  0.00000000000E+00  0.00000000000E+00  0.68778353439E+03  0.68778353441E+03  0.50400001928E-02 0.  1.
        1   -1    0    0  501    0  0.00000000000E+00  0.00000000000E+00 -0.10412453205E+04  0.10412453205E+04  0.50400001928E-02 0. -1.
    10030    2    1    2    0    0  0.00000000000E+00  0.00000000000E+00 -0.35346178612E+03  0.17290288549E+04  0.16925145633E+04 0.  0.
        3    1    3    3  502    0  0.63019380388E+02 -0.23691852175E+03  0.65071222301E+03  0.69536194578E+03  0.10100000352E+00 0.  1.
       -3    1    3    3    0  502 -0.63019380388E+02  0.23691852175E+03 -0.10041740091E+04  0.10336669092E+04  0.10100000352E+00 0. -1.
</event>
<event>
 5   0  0.6601906E-05  0.1689899E+04  0.7818609E-02  0.8767147E-01
        1   -1    0    0  501    0  0.00000000000E+00  0.00000000000E+00  0.63990236164E+03  0.63990236166E+03  0.50400001928E-02 0.  1.
       -1   -1    0    0    0  501  0.00000000000E+00  0.00000000000E+00 -0.11157004868E+04  0.11157004868E+04  0.50400001928E-02 0. -1.
    10030    2    1    2    0    0  0.00000000000E+00  0.00000000000E+00 -0.47579812516E+03  0.17556028485E+04  0.16898986673E+04 0.  0.
        1    1    3    3  502    0 -0.58259642875E+03 -0.51524488795E+03  0.10515729405E+03  0.78482733761E+03  0.50400001928E-02 0.  1.
       -1    1    3    3    0  502  0.58259642875E+03  0.51524488795E+03 -0.58095541922E+03  0.97077551086E+03  0.50400001928E-02 0. -1.
</event>
<event>
 5   0  0.1255362E-04  0.1737974E+04  0.7818609E-02  0.8739998E-01
        2   -1    0    0  501    0  0.00000000000E+00  0.00000000000E+00  0.12948680646E+04  0.12948680646E+04  0.25500000920E-02 0.  1.
       -2   -1    0    0    0  501  0.00000000000E+00  0.00000000000E+00 -0.58317776916E+03  0.58317776916E+03  0.25500000920E-02 0. -1.
    10030    2    1    2    0    0  0.00000000000E+00  0.00000000000E+00  0.71169029547E+03  0.18780458338E+04  0.17379738425E+04 0.  0.
        1    1    3    3  502    0  0.74755199935E+03 -0.39676218768E+03  0.56892807973E+03  0.10197712416E+04  0.50400001928E-02 0.  1.
       -1    1    3    3    0  502 -0.74755199935E+03  0.39676218768E+03  0.14276221574E+03  0.85827459217E+03  0.50400001928E-02 0. -1.
</event>
<event>
 5   0  0.1333546E-04  0.1697583E+04  0.7818609E-02  0.8762744E-01
       -2   -1    0    0    0  501  0.00000000000E+00  0.00000000000E+00  0.54413704433E+03  0.54413704433E+03  0.25500000920E-02 0.  1.
        2   -1    0    0  501    0  0.00000000000E+00  0.00000000000E+00 -0.13240169287E+04  0.13240169287E+04  0.25500000920E-02 0. -1.
    10030    2    1    2    0    0  0.00000000000E+00  0.00000000000E+00 -0.77987988439E+03  0.18681539731E+04  0.16975825850E+04 0.  0.
        5    1    3    3  502    0  0.39310790363E+03 -0.74357463541E+03 -0.51535354258E+03  0.98643217008E+03  0.46999998093E+01 0. -1.
       -5    1    3    3    0  502 -0.39310790363E+03  0.74357463541E+03 -0.26452634181E+03  0.88172180297E+03  0.46999998093E+01 0.  1.
</event>
<event>
 5   0  0.6539134E-05  0.1705728E+04  0.7818609E-02  0.8758104E-01
       -1   -1    0    0    0  501  0.00000000000E+00  0.00000000000E+00  0.63870811949E+03  0.63870811951E+03  0.50400001928E-02 0.  1.
        1   -1    0    0  501    0  0.00000000000E+00  0.00000000000E+00 -0.11388257172E+04  0.11388257172E+04  0.50400001928E-02 0. -1.
    10030    2    1    2    0    0  0.00000000000E+00  0.00000000000E+00 -0.50011759769E+03  0.17775338367E+04  0.17057282694E+04 0.  0.
        2    1    3    3  502    0 -0.39280449908E+03  0.69510051057E+03 -0.56254386498E+03  0.97668607768E+03  0.25500000920E-02 0. -1.
       -2    1    3    3    0  502  0.39280449908E+03 -0.69510051057E+03  0.62426267294E+02  0.80084775903E+03  0.25500000920E-02 0.  1.
</event>
<event>
 5   0  0.6539134E-05  0.1711369E+04  0.7818609E-02  0.8754906E-01
       -1   -1    0    0    0  501  0.00000000000E+00  0.00000000000E+00  0.59111896033E+03  0.59111896036E+03  0.50400001928E-02 0.  1.
        1   -1    0    0  501    0  0.00000000000E+00  0.00000000000E+00 -0.12386616257E+04  0.12386616257E+04  0.50400001928E-02 0. -1.
    10030    2    1    2    0    0  0.00000000000E+00  0.00000000000E+00 -0.64754266539E+03  0.18297805861E+04  0.17113694779E+04 0.  0.
        2    1    3    3  502    0 -0.53787543905E+03  0.24920394833E+03  0.33600153499E+03  0.68140269101E+03  0.25500000920E-02 0.  1.
       -2    1    3    3    0  502  0.53787543905E+03 -0.24920394833E+03 -0.98354420038E+03  0.11483778951E+04  0.25500000920E-02 0. -1.
</event>
<event>
 5   0  0.6615842E-05  0.1696608E+04  0.7818609E-02  0.8763301E-01
        1   -1    0    0  501    0  0.00000000000E+00  0.00000000000E+00  0.60940021713E+03  0.60940021715E+03  0.50400001928E-02 0. -1.
       -1   -1    0    0    0  501  0.00000000000E+00  0.00000000000E+00 -0.11808655173E+04  0.11808655173E+04  0.50400001928E-02 0.  1.
    10030    2    1    2    0    0  0.00000000000E+00  0.00000000000E+00 -0.57146530018E+03  0.17902657345E+04  0.16966080309E+04 0.  0.
        3    1    3    3  502    0  0.27922601927E+03  0.48271540866E+03 -0.96026929106E+03  0.11104496644E+04  0.10100000352E+00 0.  1.
       -3    1    3    3    0  502 -0.27922601927E+03 -0.48271540866E+03  0.38880399088E+03  0.67981607007E+03  0.10100000352E+00 0. -1.
</event>
<event>
 5   0  0.1393870E-04  0.1688011E+04  0.7818609E-02  0.8768232E-01
        2   -1    0    0  501    0  0.00000000000E+00  0.00000000000E+00  0.11403578154E+04  0.11403578154E+04  0.25500000920E-02 0. -1.
       -2   -1    0    0    0  501  0.00000000000E+00  0.00000000000E+00 -0.62466837734E+03  0.62466837735E+03  0.25500000920E-02 0.  1.
    10030    2    1    2    0    0  0.00000000000E+00  0.00000000000E+00  0.51568943801E+03  0.17650261927E+04  0.16880112157E+04 0.  0.
        3    1    3    3  502    0 -0.23281658997E+03  0.29260260572E+03 -0.53333160858E+03  0.65135433087E+03  0.10100000352E+00 0.  1.
       -3    1    3    3    0  502  0.23281658997E+03 -0.29260260572E+03  0.10490210466E+04  0.11136718618E+04  0.10100000352E+00 0. -1.
</event>
<event>
 5   0  0.6834837E-05  0.1700454E+04  0.7818609E-02  0.8761105E-01
       -1   -1    0    0    0  501  0.00000000000E+00  0.00000000000E+00  0.96031556178E+03  0.96031556179E+03  0.50400001928E-02 0.  1.
        1   -1    0    0  501    0  0.00000000000E+00  0.00000000000E+00 -0.75275904806E+03  0.75275904808E+03  0.50400001928E-02 0. -1.
    10030    2    1    2    0    0  0.00000000000E+00  0.00000000000E+00  0.20755651372E+03  0.17130746099E+04  0.17004543253E+04 0.  0.
        5    1    3    3  502    0 -0.32513845236E+03 -0.50848960521E+03 -0.49948774123E+03  0.78344545786E+03  0.46999998093E+01 0. -1.
       -5    1    3    3    0  502  0.32513845236E+03  0.50848960521E+03  0.70704425495E+03  0.92962915201E+03  0.46999998093E+01 0.  1.
</event>
<event>
 5   0  0.6539134E-05  0.1699313E+04  0.7818609E-02  0.8761756E-01
       -1   -1    0    0    0  501  0.00000000000E+00  0.00000000000E+00  0.40201593405E+03  0.40201593408E+03  0.50400001928E-02 0. -1.
        1   -1    0    0  501    0  0.00000000000E+00  0.00000000000E+00 -0.17957406681E+04  0.17957406681E+04  0.50400001928E-02 0.  1.
    10030    2    1    2    0    0  0.00000000000E+00  0.00000000000E+00 -0.13937247340E+04  0.21977566022E+04  0.16993132284E+04 0.  0.
        2    1    3    3  502    0 -0.41098191428E+02 -0.77715301933E+03 -0.11378457459E+04  0.13785313991E+04  0.25500000920E-02 0. -1.
       -2    1    3    3    0  502  0.41098191428E+02  0.77715301933E+03 -0.25587898815E+03  0.81922520309E+03  0.25500000920E-02 0.  1.
</event>
<event>
 5   0  0.1393870E-04  0.1700071E+04  0.7818609E-02  0.8761324E-01
       -2   -1    0    0    0  501  0.00000000000E+00  0.00000000000E+00  0.42290358408E+03  0.42290358408E+03  0.25500000920E-02 0.  1.
        2   -1    0    0  501    0  0.00000000000E+00  0.00000000000E+00 -0.17085704978E+04  0.17085704978E+04  0.25500000920E-02 0. -1.
    10030    2    1    2    0    0  0.00000000000E+00  0.00000000000E+00 -0.12856669137E+04  0.21314740819E+04  0.17000712775E+04 0.  0.
        3    1    3    3  502    0 -0.34086132419E+03 -0.74090647905E+03 -0.94329497170E+03  0.12469700345E+04  0.10100000352E+00 0. -1.
       -3    1    3    3    0  502  0.34086132419E+03  0.74090647905E+03 -0.34237194204E+03  0.88450404743E+03  0.10100000352E+00 0.  1.
</event>
<event>
 5   0  0.1333546E-04  0.1721842E+04  0.7818609E-02  0.8749004E-01
        2   -1    0    0  501    0  0.00000000000E+00  0.00000000000E+00  0.28003031183E+04  0.28003031183E+04  0.25500000920E-02 0.  1.
       -2   -1    0    0    0  501  0.00000000000E+00  0.00000000000E+00 -0.26468020985E+03  0.26468020987E+03  0.25500000920E-02 0. -1.
    10030    2    1    2    0    0  0.00000000000E+00  0.00000000000E+00  0.25356229084E+04  0.30649833282E+04  0.17218418244E+04 0.  0.
        5    1    3    3  502    0 -0.75996159331E+03  0.30194291614E+03  0.17469474416E+04  0.19288749575E+04  0.46999998093E+01 0.  1.
       -5    1    3    3    0  502  0.75996159331E+03 -0.30194291614E+03  0.78867546683E+03  0.11361083707E+04  0.46999998093E+01 0. -1.
</event>
<event>
 5   0  0.1333546E-04  0.1713355E+04  0.7818609E-02  0.8753784E-01
       -2   -1    0    0    0  501  0.00000000000E+00  0.00000000000E+00  0.36026883555E+03  0.36026883556E+03  0.25500000920E-02 0.  1.
        2   -1    0    0  501    0  0.00000000000E+00  0.00000000000E+00 -0.20370802137E+04  0.20370802137E+04  0.25500000920E-02 0. -1.
    10030    2    1    2    0    0  0.00000000000E+00  0.00000000000E+00 -0.16768113781E+04  0.23973490492E+04  0.17133552072E+04 0.  0.
        5    1    3    3  502    0  0.44262562277E+02 -0.19588148250E+03 -0.20036618371E+04  0.20137059311E+04  0.46999998093E+01 0. -1.
       -5    1    3    3    0  502 -0.44262562277E+02  0.19588148250E+03  0.32685045893E+03  0.38364311816E+03  0.46999998093E+01 0.  1.
</event>
<event>
 5   0  0.1333546E-04  0.1674460E+04  0.7818609E-02  0.8776066E-01
       -2   -1    0    0    0  501  0.00000000000E+00  0.00000000000E+00  0.87774809932E+03  0.87774809932E+03  0.25500000920E-02 0. -1.
        2   -1    0    0  501    0  0.00000000000E+00  0.00000000000E+00 -0.79858230366E+03  0.79858230367E+03  0.25500000920E-02 0.  1.
    10030    2    1    2    0    0  0.00000000000E+00  0.00000000000E+00  0.79165795657E+02  0.16763304030E+04  0.16744600314E+04 0.  0.
        5    1    3    3  502    0  0.82617769694E+02  0.63289910223E+03 -0.50282025988E+03  0.81254985892E+03  0.46999998093E+01 0.  1.
       -5    1    3    3    0  502 -0.82617769694E+02 -0.63289910223E+03  0.58198605554E+03  0.86378054407E+03  0.46999998093E+01 0. -1.
</event>
<event>
 5   0  0.1269175E-04  0.1702534E+04  0.7818609E-02  0.8759921E-01
       -2   -1    0    0    0  501  0.00000000000E+00  0.00000000000E+00  0.54421451517E+03  0.54421451518E+03  0.25500000920E-02 0. -1.
        2   -1    0    0  501    0  0.00000000000E+00  0.00000000000E+00 -0.13315615705E+04  0.13315615705E+04  0.25500000920E-02 0.  1.
    10030    2    1    2    0    0  0.00000000000E+00  0.00000000000E+00 -0.78734705533E+03  0.18757760857E+04  0.17025335645E+04 0.  0.
        2    1    3    3  502    0 -0.58322603721E+03  0.61326162599E+02  0.28615673331E+03  0.65253289934E+03  0.25500000920E-02 0. -1.
       -2    1    3    3    0  502  0.58322603721E+03 -0.61326162599E+02 -0.10735037886E+04  0.12232431863E+04  0.25500000920E-02 0.  1.
</event>
<event>
 5   0  0.1285639E-04  0.1706542E+04  0.7818609E-02  0.8757642E-01
       -2   -1    0    0    0  501  0.00000000000E+00  0.00000000000E+00  0.54923974593E+03  0.54923974593E+03  0.25500000920E-02 0.  1.
        2   -1    0    0  501    0  0.00000000000E+00  0.00000000000E+00 -0.13255992166E+04  0.13255992166E+04  0.25500000920E-02 0. -1.
    10030    2    1    2    0    0  0.00000000000E+00  0.00000000000E+00 -0.77635947063E+03  0.18748389625E+04  0.17065424424E+04 0.  0.
        4    1    3    3  502    0  0.11013622451E+03  0.72594704977E+03  0.89360585488E+02  0.73967292377E+03  0.12699999809E+01 0.  1.
       -4    1    3    3    0  502 -0.11013622451E+03 -0.72594704977E+03 -0.86572005612E+03  0.11351660387E+04  0.12699999809E+01 0. -1.
</event>
<event>
 5   0  0.1333546E-04  0.1695105E+04  0.7818609E-02  0.8764161E-01
       -2   -1    0    0    0  501  0.00000000000E+00  0.00000000000E+00  0.30992444916E+03  0.30992444917E+03  0.25500000920E-02 0. -1.
        2   -1    0    0  501    0  0.00000000000E+00  0.00000000000E+00 -0.23178085476E+04  0.23178085476E+04  0.25500000920E-02 0.  1.
    10030    2    1    2    0    0  0.00000000000E+00  0.00000000000E+00 -0.20078840985E+04  0.26277329968E+04  0.16951053506E+04 0.  0.
        5    1    3    3  502    0  0.70535951240E+03 -0.45481242326E+03 -0.11869501052E+04  0.14537052742E+04  0.46999998093E+01 0.  1.
       -5    1    3    3    0  502 -0.70535951240E+03  0.45481242326E+03 -0.82093399327E+03  0.11740277226E+04  0.46999998093E+01 0. -1.
</event>
<event>
 5   0  0.1333546E-04  0.1694784E+04  0.7818609E-02  0.8764345E-01
        2   -1    0    0  501    0  0.00000000000E+00  0.00000000000E+00  0.13604812823E+04  0.13604812823E+04  0.25500000920E-02 0. -1.
       -2   -1    0    0    0  501  0.00000000000E+00  0.00000000000E+00 -0.52780838642E+03  0.52780838642E+03  0.25500000920E-02 0.  1.
    10030    2    1    2    0    0  0.00000000000E+00  0.00000000000E+00  0.83267289592E+03  0.18882896688E+04  0.16947842699E+04 0.  0.
        5    1    3    3  502    0  0.19229795757E+03  0.45787685271E+03  0.11813320567E+04  0.12814824365E+04  0.46999998093E+01 0. -1.
       -5    1    3    3    0  502 -0.19229795757E+03 -0.45787685271E+03 -0.34865916082E+03  0.60680723228E+03  0.46999998093E+01 0.  1.
</event>
<event>
 5   0  0.1255362E-04  0.1702006E+04  0.7818609E-02  0.8760221E-01
       -2   -1    0    0    0  501  0.00000000000E+00  0.00000000000E+00  0.72004293492E+03  0.72004293493E+03  0.25500000920E-02 0.  1.
        2   -1    0    0  501    0  0.00000000000E+00  0.00000000000E+00 -0.10057822174E+04  0.10057822174E+04  0.25500000920E-02 0. -1.
    10030    2    1    2    0    0  0.00000000000E+00  0.00000000000E+00 -0.28573928248E+03  0.17258251523E+04  0.17020063216E+04 0.  0.
        1    1    3    3  502    0 -0.84042016503E+03  0.46094960588E+01 -0.27845356253E+03  0.88536076701E+03  0.50400001928E-02 0.  1.
       -1    1    3    3    0  502  0.84042016503E+03 -0.46094960588E+01 -0.72857199501E+01  0.84046438532E+03  0.50400001928E-02 0. -1.
</event>
<event>
 5   0  0.4720875E-05  0.1708477E+04  0.7818609E-02  0.8756545E-01
       -3   -1    0    0    0  501  0.00000000000E+00  0.00000000000E+00  0.17580216020E+04  0.17580216049E+04  0.10100000352E+00 0.  1.
        3   -1    0    0  501    0  0.00000000000E+00  0.00000000000E+00 -0.41508197332E+03  0.41508198561E+03  0.10100000352E+00 0. -1.
    10030    2    1    2    0    0  0.00000000000E+00  0.00000000000E+00  0.13429396287E+04  0.21731035905E+04  0.17084766222E+04 0.  0.
        3    1    3    3  502    0  0.69000740988E+03  0.25625100214E+03  0.12003958948E+03  0.74577765790E+03  0.10100000352E+00 0. -1.
       -3    1    3    3    0  502 -0.69000740988E+03 -0.25625100214E+03  0.12229000392E+04  0.14273259326E+04  0.10100000352E+00 0.  1.
</event>
<event>
 5   0  0.1255362E-04  0.1707610E+04  0.7818609E-02  0.8757036E-01
       -2   -1    0    0    0  501  0.00000000000E+00  0.00000000000E+00  0.65848275886E+03  0.65848275887E+03  0.25500000920E-02 0.  1.
        2   -1    0    0  501    0  0.00000000000E+00  0.00000000000E+00 -0.11070643644E+04  0.11070643644E+04  0.25500000920E-02 0. -1.
    10030    2    1    2    0    0  0.00000000000E+00  0.00000000000E+00 -0.44858160549E+03  0.17655471232E+04  0.17076097878E+04 0.  0.
        1    1    3    3  502    0  0.48395911264E+02  0.58318130257E+03  0.41852717194E+03  0.71944950454E+03  0.50400001928E-02 0.  1.
       -1    1    3    3    0  502 -0.48395911264E+02 -0.58318130257E+03 -0.86710877744E+03  0.10460976187E+04  0.50400001928E-02 0. -1.
</event>
<event>
 5   0  0.6539134E-05  0.1704371E+04  0.7818609E-02  0.8758875E-01
       -1   -1    0    0    0  501  0.00000000000E+00  0.00000000000E+00  0.34096663907E+03  0.34096663911E+03  0.50400001928E-02 0. -1.
        1   -1    0    0  501    0  0.00000000000E+00  0.00000000000E+00 -0.21298860327E+04  0.21298860327E+04  0.50400001928E-02 0.  1.
    10030    2    1    2    0    0  0.00000000000E+00  0.00000000000E+00 -0.17889193936E+04  0.24708526718E+04  0.17043709481E+04 0.  0.
        2    1    3    3  502    0 -0.45325927206E+03  0.15254755991E+03 -0.19170027636E+04  0.19757566453E+04  0.25500000920E-02 0.  1.
       -2    1    3    3    0  502  0.45325927206E+03 -0.15254755991E+03  0.12808337003E+03  0.49509602647E+03  0.25500000920E-02 0. -1.
</event>
<event>
 5   0  0.1393870E-04  0.1694127E+04  0.7818609E-02  0.8764721E-01
       -2   -1    0    0    0  501  0.00000000000E+00  0.00000000000E+00  0.55995111736E+03  0.55995111737E+03  0.25500000920E-02 0. -1.
        2   -1    0    0  501    0  0.00000000000E+00  0.00000000000E+00 -0.12813919305E+04  0.12813919305E+04  0.25500000920E-02 0.  1.
    10030    2    1    2    0    0  0.00000000000E+00  0.00000000000E+00 -0.72144081310E+03  0.18413430478E+04  0.16941273190E+04 0.  0.
        3    1    3    3  502    0  0.60239631938E+03 -0.14327417797E+03  0.26752903212E+03  0.67452250437E+03  0.10100000352E+00 0. -1.
       -3    1    3    3    0  502 -0.60239631938E+03  0.14327417797E+03 -0.98896984522E+03  0.11668205435E+04  0.10100000352E+00 0.  1.
</event>
<event>
 5   0  0.6564887E-05  0.1698655E+04  0.7818609E-02  0.8762132E-01
        1   -1    0    0  501    0  0.00000000000E+00  0.00000000000E+00  0.97523947409E+03  0.97523947410E+03  0.50400001928E-02 0.  1.
       -1   -1    0    0    0  501  0.00000000000E+00  0.00000000000E+00 -0.73967163565E+03  0.73967163566E+03  0.50400001928E-02 0. -1.
    10030    2    1    2    0    0  0.00000000000E+00  0.00000000000E+00  0.23556783844E+03  0.17149111098E+04  0.16986547348E+04 0.  0.
        4    1    3    3  502    0  0.91810629254E+02  0.78659237284E+03  0.42763909171E+03  0.90001864331E+03  0.12699999809E+01 0.  1.
       -4    1    3    3    0  502 -0.91810629254E+02 -0.78659237284E+03 -0.19207125327E+03  0.81489246645E+03  0.12699999809E+01 0. -1.
</event>
<event>
 5   0  0.6601906E-05  0.1701377E+04  0.7818609E-02  0.8760579E-01
       -1   -1    0    0    0  501  0.00000000000E+00  0.00000000000E+00  0.57012702406E+03  0.57012702409E+03  0.50400001928E-02 0. -1.
        1   -1    0    0  501    0  0.00000000000E+00  0.00000000000E+00 -0.12693154236E+04  0.12693154236E+04  0.50400001928E-02 0.  1.
    10030    2    1    2    0    0  0.00000000000E+00  0.00000000000E+00 -0.69918839949E+03  0.18394424477E+04  0.17013771188E+04 0.  0.
        1    1    3    3  502    0  0.73225970837E+01 -0.23111462377E+03  0.53549887187E+03  0.58328949206E+03  0.50400001928E-02 0. -1.
       -1    1    3    3    0  502 -0.73225970837E+01  0.23111462377E+03 -0.12346872714E+04  0.12561529556E+04  0.50400001928E-02 0.  1.
</event>
<event>
 5   0  0.6834837E-05  0.1711888E+04  0.7818609E-02  0.8754613E-01
       -1   -1    0    0    0  501  0.00000000000E+00  0.00000000000E+00  0.98058334454E+03  0.98058334455E+03  0.50400001928E-02 0.  1.
        1   -1    0    0  501    0  0.00000000000E+00  0.00000000000E+00 -0.74714745181E+03  0.74714745183E+03  0.50400001928E-02 0. -1.
    10030    2    1    2    0    0  0.00000000000E+00  0.00000000000E+00  0.23343589273E+03  0.17277307964E+04  0.17118882524E+04 0.  0.
        5    1    3    3  502    0 -0.34878671907E+03  0.14533060195E+03  0.89183920852E+03  0.96859301211E+03  0.46999998093E+01 0.  1.
       -5    1    3    3    0  502  0.34878671907E+03 -0.14533060195E+03 -0.65840331579E+03  0.75913778427E+03  0.46999998093E+01 0. -1.
</event>
<event>
 5   0  0.1285639E-04  0.1700204E+04  0.7818609E-02  0.8761248E-01
       -2   -1    0    0    0  501  0.00000000000E+00  0.00000000000E+00  0.69683084184E+03  0.69683084185E+03  0.25500000920E-02 0.  1.
        2   -1    0    0  501    0  0.00000000000E+00  0.00000000000E+00 -0.10370863920E+04  0.10370863920E+04  0.25500000920E-02 0. -1.
    10030    2    1    2    0    0  0.00000000000E+00  0.00000000000E+00 -0.34025555018E+03  0.17339172339E+04  0.17002044390E+04 0.  0.
        4    1    3    3  502    0 -0.35781997352E+03 -0.36389529979E+03  0.52321866687E+03  0.73089965722E+03  0.12699999809E+01 0.  1.
       -4    1    3    3    0  502  0.35781997352E+03  0.36389529979E+03 -0.86347421705E+03  0.10030175767E+04  0.12699999809E+01 0. -1.
</event>
<event>
 5   0  0.6539134E-05  0.1702172E+04  0.7818609E-02  0.8760127E-01
       -1   -1    0    0    0  501  0.00000000000E+00  0.00000000000E+00  0.37016434463E+03  0.37016434466E+03  0.50400001928E-02 0.  1.
        1   -1    0    0  501    0  0.00000000000E+00  0.00000000000E+00 -0.19568255547E+04  0.19568255547E+04  0.50400001928E-02 0. -1.
    10030    2    1    2    0    0  0.00000000000E+00  0.00000000000E+00 -0.15866612100E+04  0.23269898993E+04  0.17021716118E+04 0.  0.
        2    1    3    3  502    0  0.12319571267E+03  0.34303037014E+03  0.25807076995E+03  0.44659550017E+03  0.25500000920E-02 0.  1.
       -2    1    3    3    0  502 -0.12319571267E+03 -0.34303037014E+03 -0.18447319800E+04  0.18803943992E+04  0.25500000920E-02 0. -1.
</event>
<event>
 5   0  0.1269175E-04  0.1704001E+04  0.7818609E-02  0.8759086E-01
       -2   -1    0    0    0  501  0.00000000000E+00  0.00000000000E+00  0.98682827109E+03  0.98682827109E+03  0.25500000920E-02 0. -1.
        2   -1    0    0  501    0  0.00000000000E+00  0.00000000000E+00 -0.73559411448E+03  0.73559411448E+03  0.25500000920E-02 0.  1.
    10030    2    1    2    0    0  0.00000000000E+00  0.00000000000E+00  0.25123415661E+03  0.17224223856E+04  0.17040012538E+04 0.  0.
        2    1    3    3  502    0  0.72256317299E+03 -0.30355483664E+03  0.46338813594E+03  0.91047879840E+03  0.25500000920E-02 0.  1.
       -2    1    3    3    0  502 -0.72256317299E+03  0.30355483664E+03 -0.21215397933E+03  0.81194358717E+03  0.25500000920E-02 0. -1.
</event>
<event>
 5   0  0.1255362E-04  0.1718024E+04  0.7818609E-02  0.8751151E-01
        2   -1    0    0  501    0  0.00000000000E+00  0.00000000000E+00  0.20121750857E+04  0.20121750857E+04  0.25500000920E-02 0.  1.
       -2   -1    0    0    0  501  0.00000000000E+00  0.00000000000E+00 -0.36671840438E+03  0.36671840439E+03  0.25500000920E-02 0. -1.
    10030    2    1    2    0    0  0.00000000000E+00  0.00000000000E+00  0.16454566813E+04  0.23788934901E+04  0.17180240240E+04 0.  0.
        1    1    3    3  502    0 -0.30981379447E+02 -0.16021434698E+03 -0.34505956715E+03  0.38169960409E+03  0.50400001928E-02 0. -1.
       -1    1    3    3    0  502  0.30981379447E+02  0.16021434698E+03  0.19905162485E+04  0.19971938860E+04  0.50400001928E-02 0.  1.
</event>
<event>
 5   0  0.1333546E-04  0.1697771E+04  0.7818609E-02  0.8762636E-01
       -2   -1    0    0    0  501  0.00000000000E+00  0.00000000000E+00  0.40092854173E+03  0.40092854174E+03  0.25500000920E-02 0. -1.
        2   -1    0    0  501    0  0.00000000000E+00  0.00000000000E+00 -0.17973451771E+04  0.17973451771E+04  0.25500000920E-02 0.  1.
    10030    2    1    2    0    0  0.00000000000E+00  0.00000000000E+00 -0.13964166353E+04  0.21982737188E+04  0.16977714579E+04 0.  0.
        5    1    3    3  502    0 -0.40917629234E+03 -0.18100724902E+03  0.23584039525E+03  0.50579802732E+03  0.46999998093E+01 0. -1.
       -5    1    3    3    0  502  0.40917629234E+03  0.18100724902E+03 -0.16322570306E+04  0.16924756915E+04  0.46999998093E+01 0.  1.
</event>
<event>
 5   0  0.6539134E-05  0.1700632E+04  0.7818609E-02  0.8761004E-01
        1   -1    0    0  501    0  0.00000000000E+00  0.00000000000E+00  0.11235588849E+04  0.11235588849E+04  0.50400001928E-02 0. -1.
       -1   -1    0    0    0  501  0.00000000000E+00  0.00000000000E+00 -0.64352442161E+03  0.64352442163E+03  0.50400001928E-02 0.  1.
    10030    2    1    2    0    0  0.00000000000E+00  0.00000000000E+00  0.48003446328E+03  0.17670833065E+04  0.17006323313E+04 0.  0.
        2    1    3    3  502    0  0.31998167633E+03  0.71858952386E+03  0.57555683113E+03  0.97469217851E+03  0.25500000920E-02 0. -1.
       -2    1    3    3    0  502 -0.31998167633E+03 -0.71858952386E+03 -0.95522367852E+02  0.79239112802E+03  0.25500000920E-02 0.  1.
</event>
<event>
 5   0  0.6564887E-05  0.1705515E+04  0.7818609E-02  0.8758225E-01
        1   -1    0    0  501    0  0.00000000000E+00  0.00000000000E+00  0.11600754061E+04  0.11600754062E+04  0.50400001928E-02 0. -1.
       -1   -1    0    0    0  501  0.00000000000E+00  0.00000000000E+00 -0.62685145823E+03  0.62685145825E+03  0.50400001928E-02 0.  1.
    10030    2    1    2    0    0  0.00000000000E+00  0.00000000000E+00  0.53322394792E+03  0.17869268644E+04  0.17055145382E+04 0.  0.
        4    1    3    3  502    0  0.44391636029E+03  0.64711103007E+03 -0.83053592463E+02  0.78912225434E+03  0.12699999809E+01 0.  1.
       -4    1    3    3    0  502 -0.44391636029E+03 -0.64711103007E+03  0.61627754039E+03  0.99780461006E+03  0.12699999809E+01 0. -1.
</event>
<event>
 5   0  0.1285639E-04  0.1703512E+04  0.7818609E-02  0.8759364E-01
       -2   -1    0    0    0  501  0.00000000000E+00  0.00000000000E+00  0.82234866922E+03  0.82234866922E+03  0.25500000920E-02 0. -1.
        2   -1    0    0  501    0  0.00000000000E+00  0.00000000000E+00 -0.88221516993E+03  0.88221516993E+03  0.25500000920E-02 0.  1.
    10030    2    1    2    0    0  0.00000000000E+00  0.00000000000E+00 -0.59866500714E+02  0.17045638392E+04  0.17035122200E+04 0.  0.
        4    1    3    3  502    0  0.37582058734E+03 -0.41464128131E+03  0.61258334651E+03  0.82971590039E+03  0.12699999809E+01 0. -1.
       -4    1    3    3    0  502 -0.37582058734E+03  0.41464128131E+03 -0.67244984722E+03  0.87484793877E+03  0.12699999809E+01 0.  1.
</event>
<event>
 5   0  0.1393870E-04  0.1697583E+04  0.7818609E-02  0.8762744E-01
        2   -1    0    0  501    0  0.00000000000E+00  0.00000000000E+00  0.18121805059E+04  0.18121805059E+04  0.25500000920E-02 0.  1.
       -2   -1    0    0    0  501  0.00000000000E+00  0.00000000000E+00 -0.39755796911E+03  0.39755796912E+03  0.25500000920E-02 0. -1.
    10030    2    1    2    0    0  0.00000000000E+00  0.00000000000E+00  0.14146225368E+04  0.22097384751E+04  0.16975827539E+04 0.  0.
        3    1    3    3  502    0  0.34159998267E+03 -0.55069024653E+02 -0.30158679065E+03  0.45899645764E+03  0.10100000352E+00 0. -1.
       -3    1    3    3    0  502 -0.34159998267E+03  0.55069024653E+02  0.17162093275E+04  0.17507420174E+04  0.10100000352E+00 0.  1.
</event>
<event>
 5   0  0.6601906E-05  0.1694847E+04  0.7818609E-02  0.8764309E-01
       -1   -1    0    0    0  501  0.00000000000E+00  0.00000000000E+00  0.78267190112E+03  0.78267190113E+03  0.50400001928E-02 0.  1.
        1   -1    0    0  501    0  0.00000000000E+00  0.00000000000E+00 -0.91753185659E+03  0.91753185661E+03  0.50400001928E-02 0. -1.
    10030    2    1    2    0    0  0.00000000000E+00  0.00000000000E+00 -0.13485995548E+03  0.17002037577E+04  0.16948467808E+04 0.  0.
        1    1    3    3  502    0  0.53627898694E+03 -0.48079536864E+02  0.58902327429E+03  0.79803208668E+03  0.50400001928E-02 0.  1.
       -1    1    3    3    0  502 -0.53627898694E+03  0.48079536864E+02 -0.72388322977E+03  0.90217167106E+03  0.50400001928E-02 0. -1.
</event>
<event>
 5   0  0.6615842E-05  0.1670111E+04  0.7818609E-02  0.8778597E-01
        1   -1    0    0  501    0  0.00000000000E+00  0.00000000000E+00  0.14183508675E+04  0.14183508675E+04  0.50400001928E-02 0. -1.
       -1   -1    0    0    0  501  0.00000000000E+00  0.00000000000E+00 -0.49163978935E+03  0.49163978938E+03  0.50400001928E-02 0.  1.
    10030    2    1    2    0    0  0.00000000000E+00  0.00000000000E+00  0.92671107813E+03  0.19099906569E+04  0.16701110403E+04 0.  0.
        3    1    3    3  502    0 -0.81320124691E+03 -0.17091082407E+03  0.55773754975E+03  0.10007886702E+04  0.10100000352E+00 0.  1.
       -3    1    3    3    0  502  0.81320124691E+03  0.17091082407E+03  0.36897352838E+03  0.90920198669E+03  0.10100000352E+00 0. -1.
</event>
<event>
 5   0  0.6539134E-05  0.1696515E+04  0.7818609E-02  0.8763354E-01
       -1   -1    0    0    0  501  0.00000000000E+00  0.00000000000E+00  0.85203728558E+03  0.85203728560E+03  0.50400001928E-02 0. -1.
        1   -1    0    0  501    0  0.00000000000E+00  0.00000000000E+00 -0.84449475293E+03  0.84449475294E+03  0.50400001928E-02 0.  1.
    10030    2    1    2    0    0  0.00000000000E+00  0.00000000000E+00  0.75425326546E+01  0.16965320385E+04  0.16965152720E+04 0.  0.
        2    1    3    3  502    0  0.21580439367E+03  0.31215211601E+03  0.76241605348E+03  0.85163884274E+03  0.25500000920E-02 0. -1.
       -2    1    3    3    0  502 -0.21580439367E+03 -0.31215211601E+03 -0.75487352083E+03  0.84489319580E+03  0.25500000920E-02 0.  1.
</event>
<event>
 5   0  0.6539134E-05  0.1706674E+04  0.7818609E-02  0.8757567E-01
       -1   -1    0    0    0  501  0.00000000000E+00  0.00000000000E+00  0.36790686686E+03  0.36790686690E+03  0.50400001928E-02 0. -1.
        1   -1    0    0  501    0  0.00000000000E+00  0.00000000000E+00 -0.19792628556E+04  0.19792628556E+04  0.50400001928E-02 0.  1.
    10030    2    1    2    0    0  0.00000000000E+00  0.00000000000E+00 -0.16113559887E+04  0.23471697225E+04  0.17066744223E+04 0.  0.
        2    1    3    3  502    0  0.55565675301E+03  0.55043425061E+03 -0.12749962905E+04  0.14957766652E+04  0.25500000920E-02 0.  1.
       -2    1    3    3    0  502 -0.55565675301E+03 -0.55043425061E+03 -0.33635969827E+03  0.85139305731E+03  0.25500000920E-02 0. -1.
</event>
<event>
 5   0  0.1333546E-04  0.1699981E+04  0.7818609E-02  0.8761375E-01
        2   -1    0    0  501    0  0.00000000000E+00  0.00000000000E+00  0.37108091089E+03  0.37108091090E+03  0.25500000920E-02 0. -1.
       -2   -1    0    0    0  501  0.00000000000E+00  0.00000000000E+00 -0.19469720863E+04  0.19469720863E+04  0.25500000920E-02 0.  1.
    10030    2    1    2    0    0  0.00000000000E+00  0.00000000000E+00 -0.15758911754E+04  0.23180529972E+04  0.16999813825E+04 0.  0.
        5    1    3    3  502    0 -0.76739156751E+03  0.36307738140E+03 -0.73095070020E+03  0.11202794379E+04  0.46999998093E+01 0.  1.
       -5    1    3    3    0  502  0.76739156751E+03 -0.36307738140E+03 -0.84494047517E+03  0.11977735593E+04  0.46999998093E+01 0. -1.
</event>
<event>
 5   0  0.6834837E-05  0.1692368E+04  0.7818609E-02  0.8765729E-01
        1   -1    0    0  501    0  0.00000000000E+00  0.00000000000E+00  0.11476310460E+04  0.11476310461E+04  0.50400001928E-02 0. -1.
       -1   -1    0    0    0  501  0.00000000000E+00  0.00000000000E+00 -0.62391800765E+03  0.62391800767E+03  0.50400001928E-02 0.  1.
    10030    2    1    2    0    0  0.00000000000E+00  0.00000000000E+00  0.52371303839E+03  0.17715490537E+04  0.16923683710E+04 0.  0.
        5    1    3    3  502    0  0.34163369747E+03 -0.77326465920E+03  0.22334145515E+03  0.87438853607E+03  0.46999998093E+01 0. -1.
       -5    1    3    3    0  502 -0.34163369747E+03  0.77326465920E+03  0.30037158324E+03  0.89716051765E+03  0.46999998093E+01 0.  1.
</event>
<event>
 5   0  0.6615842E-05  0.1707829E+04  0.7818609E-02  0.8756912E-01
        1   -1    0    0  501    0  0.00000000000E+00  0.00000000000E+00  0.86598573511E+03  0.86598573512E+03  0.50400001928E-02 0. -1.
       -1   -1    0    0    0  501  0.00000000000E+00  0.00000000000E+00 -0.84201109297E+03  0.84201109298E+03  0.50400001928E-02 0.  1.
    10030    2    1    2    0    0  0.00000000000E+00  0.00000000000E+00  0.23974642141E+02  0.17079968281E+04  0.17078285574E+04 0.  0.
        3    1    3    3  502    0  0.24945760879E+03  0.49521208258E+03 -0.63746520560E+03  0.84488224261E+03  0.10100000352E+00 0.  1.
       -3    1    3    3    0  502 -0.24945760879E+03 -0.49521208258E+03  0.66143984775E+03  0.86311458550E+03  0.10100000352E+00 0. -1.
</event>
<event>
 5   0  0.6834837E-05  0.1695387E+04  0.7818609E-02  0.8764000E-01
       -1   -1    0    0    0  501  0.00000000000E+00  0.00000000000E+00  0.75110326915E+03  0.75110326917E+03  0.50400001928E-02 0.  1.
        1   -1    0    0  501    0  0.00000000000E+00  0.00000000000E+00 -0.95670470239E+03  0.95670470241E+03  0.50400001928E-02 0. -1.
    10030    2    1    2    0    0  0.00000000000E+00  0.00000000000E+00 -0.20560143324E+03  0.17078079716E+04  0.16953867165E+04 0.  0.
        5    1    3    3  502    0  0.47751425071E+03  0.54244127757E+03  0.34350238155E+03  0.80017396569E+03  0.46999998093E+01 0.  1.
       -5    1    3    3    0  502 -0.47751425071E+03 -0.54244127757E+03 -0.54910381479E+03  0.90763400589E+03  0.46999998093E+01 0. -1.
</event>
<event>
 5   0  0.6601906E-05  0.1701557E+04  0.7818609E-02  0.8760477E-01
        1   -1    0    0  501    0  0.00000000000E+00  0.00000000000E+00  0.18258864561E+04  0.18258864561E+04  0.50400001928E-02 0. -1.
       -1   -1    0    0    0  501  0.00000000000E+00  0.00000000000E+00 -0.39642338884E+03  0.39642338887E+03  0.50400001928E-02 0.  1.
    10030    2    1    2    0    0  0.00000000000E+00  0.00000000000E+00  0.14294630673E+04  0.22223098450E+04  0.17015570477E+04 0.  0.
        1    1    3    3  502    0 -0.23629275413E+01 -0.19987933881E+03 -0.36531842476E+03  0.41643112877E+03  0.50400001928E-02 0.  1.
       -1    1    3    3    0  502  0.23629275413E+01  0.19987933881E+03  0.17947814921E+04  0.18058787162E+04  0.50400001928E-02 0. -1.
</event>
<event>
 5   0  0.1269175E-04  0.1712924E+04  0.7818609E-02  0.8754027E-01
        2   -1    0    0  501    0  0.00000000000E+00  0.00000000000E+00  0.12031319650E+04  0.12031319650E+04  0.25500000920E-02 0.  1.
       -2   -1    0    0    0  501  0.00000000000E+00  0.00000000000E+00 -0.60968141502E+03  0.60968141503E+03  0.25500000920E-02 0. -1.
    10030    2    1    2    0    0  0.00000000000E+00  0.00000000000E+00  0.59345054998E+03  0.18128133800E+04  0.17129240484E+04 0.  0.
        2    1    3    3  502    0  0.54799441470E+01 -0.82950456227E+02  0.11988520785E+04  0.12017308826E+04  0.25500000920E-02 0.  1.
       -2    1    3    3    0  502 -0.54799441470E+01  0.82950456227E+02 -0.60540152852E+03  0.61108249747E+03  0.25500000920E-02 0. -1.
</event>
<event>
 5   0  0.1255362E-04  0.1698468E+04  0.7818609E-02  0.8762238E-01
       -2   -1    0    0    0  501  0.00000000000E+00  0.00000000000E+00  0.98136792798E+03  0.98136792798E+03  0.25500000920E-02 0.  1.
        2   -1    0    0  501    0  0.00000000000E+00  0.00000000000E+00 -0.73489116591E+03  0.73489116592E+03  0.25500000920E-02 0. -1.
    10030    2    1    2    0    0  0.00000000000E+00  0.00000000000E+00  0.24647676206E+03  0.17162590939E+04  0.16984682756E+04 0.  0.
        1    1    3    3  502    0 -0.56902144737E+03  0.30297092235E+03  0.68185982151E+03  0.93835473227E+03  0.50400001928E-02 0.  1.
       -1    1    3    3    0  502  0.56902144737E+03 -0.30297092235E+03 -0.43538305944E+03  0.77790436163E+03  0.50400001928E-02 0. -1.
</event>
<event>
 5   0  0.4720875E-05  0.1704661E+04  0.7818609E-02  0.8758710E-01
       -3   -1    0    0    0  501  0.00000000000E+00  0.00000000000E+00  0.69648157486E+03  0.69648158219E+03  0.10100000352E+00 0.  1.
        3   -1    0    0  501    0  0.00000000000E+00  0.00000000000E+00 -0.10430534390E+04  0.10430534439E+04  0.10100000352E+00 0. -1.
    10030    2    1    2    0    0  0.00000000000E+00  0.00000000000E+00 -0.34657186414E+03  0.17395350261E+04  0.17046612713E+04 0.  0.
        2    1    3    3  502    0  0.52102112963E+03  0.30416305644E+03 -0.78767389327E+03  0.99217354559E+03  0.25500000920E-02 0. -1.
       -2    1    3    3    0  502 -0.52102112963E+03 -0.30416305644E+03  0.44110202913E+03  0.74736148050E+03  0.25500000920E-02 0.  1.
</event>
<event>
 5   0  0.6539134E-05  0.1699746E+04  0.7818609E-02  0.8761509E-01
       -1   -1    0    0    0  501  0.00000000000E+00  0.00000000000E+00  0.15269450917E+04  0.15269450917E+04  0.50400001928E-02 0.  1.
        1   -1    0    0  501    0  0.00000000000E+00  0.00000000000E+00 -0.47302581517E+03  0.47302581519E+03  0.50400001928E-02 0. -1.
    10030    2    1    2    0    0  0.00000000000E+00  0.00000000000E+00  0.10539192765E+04  0.19999709069E+04  0.16997463890E+04 0.  0.
        2    1    3    3  502    0  0.37897410103E+03 -0.30703626858E+03  0.13458729777E+04  0.14315260080E+04  0.25500000920E-02 0.  1.
       -2    1    3    3    0  502 -0.37897410103E+03  0.30703626858E+03 -0.29195370116E+03  0.56844489891E+03  0.25500000920E-02 0. -1.
</event>
<event>
 5   0  0.6615842E-05  0.1701142E+04  0.7818609E-02  0.8760713E-01
        1   -1    0    0  501    0  0.00000000000E+00  0.00000000000E+00  0.52842132984E+03  0.52842132986E+03  0.50400001928E-02 0.  1.
       -1   -1    0    0    0  501  0.00000000000E+00  0.00000000000E+00 -0.13691184846E+04  0.13691184846E+04  0.50400001928E-02 0. -1.
    10030    2    1    2    0    0  0.00000000000E+00  0.00000000000E+00 -0.84069715474E+03  0.18975398145E+04  0.17011424518E+04 0.  0.
        3    1    3    3  502    0 -0.77264159547E+03  0.32884437813E+03 -0.57148175824E+03  0.10157288370E+04  0.10100000352E+00 0. -1.
       -3    1    3    3    0  502  0.77264159547E+03 -0.32884437813E+03 -0.26921539650E+03  0.88181097747E+03  0.10100000352E+00 0.  1.
</event>
<event>
 5   0  0.1269175E-04  0.1596359E+04  0.7818609E-02  0.8822788E-01
        2   -1    0    0  501    0  0.00000000000E+00  0.00000000000E+00  0.63607904849E+03  0.63607904850E+03  0.25500000920E-02 0. -1.
       -2   -1    0    0    0  501  0.00000000000E+00  0.00000000000E+00 -0.10015904457E+04  0.10015904457E+04  0.25500000920E-02 0.  1.
    10030    2    1    2    0    0  0.00000000000E+00  0.00000000000E+00 -0.36551139723E+03  0.16376694942E+04  0.15963592299E+04 0.  0.
        2    1    3    3  502    0 -0.81508523719E+02  0.82125109223E+02 -0.99294104261E+03  0.99965998575E+03  0.25500000920E-02 0.  1.
       -2    1    3    3    0  502  0.81508523719E+02 -0.82125109223E+02  0.62742964538E+03  0.63800950848E+03  0.25500000920E-02 0. -1.
</event>
<event>
 5   0  0.1255362E-04  0.1706181E+04  0.7818609E-02  0.8757847E-01
        2   -1    0    0  501    0  0.00000000000E+00  0.00000000000E+00  0.14966325357E+04  0.14966325357E+04  0.25500000920E-02 0.  1.
       -2   -1    0    0    0  501  0.00000000000E+00  0.00000000000E+00 -0.48626744005E+03  0.48626744005E+03  0.25500000920E-02 0. -1.
    10030    2    1    2    0    0  0.00000000000E+00  0.00000000000E+00  0.10103650956E+04  0.19828999757E+04  0.17061813172E+04 0.  0.
        1    1    3    3  502    0 -0.18022903117E+03  0.24186952473E+03 -0.42222459259E+03  0.51889977576E+03  0.50400001928E-02 0. -1.
       -1    1    3    3    0  502  0.18022903117E+03 -0.24186952473E+03  0.14325896882E+04  0.14640002000E+04  0.50400001928E-02 0.  1.
</event>
<event>
 5   0  0.6601906E-05  0.1697316E+04  0.7818609E-02  0.8762897E-01
        1   -1    0    0  501    0  0.00000000000E+00  0.00000000000E+00  0.13597477047E+04  0.13597477047E+04  0.50400001928E-02 0. -1.
       -1   -1    0    0    0  501  0.00000000000E+00  0.00000000000E+00 -0.52967185176E+03  0.52967185179E+03  0.50400001928E-02 0.  1.
    10030    2    1    2    0    0  0.00000000000E+00  0.00000000000E+00  0.83007585291E+03  0.18894195565E+04  0.16973156273E+04 0.  0.
        1    1    3    3  502    0  0.75665489634E+03 -0.17673964218E+02  0.84239083972E+03  0.11324580911E+04  0.50400001928E-02 0. -1.
       -1    1    3    3    0  502 -0.75665489634E+03  0.17673964218E+02 -0.12314986806E+02  0.75696146540E+03  0.50400001928E-02 0.  1.
</event>
<event>
 5   0  0.1269175E-04  0.1719622E+04  0.7818609E-02  0.8750252E-01
       -2   -1    0    0    0  501  0.00000000000E+00  0.00000000000E+00  0.69312632153E+03  0.69312632153E+03  0.25500000920E-02 0.  1.
        2   -1    0    0  501    0  0.00000000000E+00  0.00000000000E+00 -0.10665807986E+04  0.10665807986E+04  0.25500000920E-02 0. -1.
    10030    2    1    2    0    0  0.00000000000E+00  0.00000000000E+00 -0.37345447711E+03  0.17597071202E+04  0.17196223139E+04 0.  0.
        2    1    3    3  502    0 -0.49340259447E+02 -0.85765791275E+03 -0.15035047997E+03  0.87213348940E+03  0.25500000920E-02 0.  1.
       -2    1    3    3    0  502  0.49340259447E+02  0.85765791275E+03 -0.22310399714E+03  0.88757363077E+03  0.25500000920E-02 0. -1.
</event>
<event>
 5   0  0.6564887E-05  0.1700232E+04  0.7818609E-02  0.8761232E-01
        1   -1    0    0  501    0  0.00000000000E+00  0.00000000000E+00  0.10905964072E+04  0.10905964072E+04  0.50400001928E-02 0. -1.
       -1   -1    0    0    0  501  0.00000000000E+00  0.00000000000E+00 -0.66266205858E+03  0.66266205860E+03  0.50400001928E-02 0.  1.
    10030    2    1    2    0    0  0.00000000000E+00  0.00000000000E+00  0.42793434859E+03  0.17532584658E+04  0.17002315846E+04 0.  0.
        4    1    3    3  502    0  0.68648972865E+03  0.46421490582E+03  0.40943544479E+03  0.92433901934E+03  0.12699999809E+01 0. -1.
       -4    1    3    3    0  502 -0.68648972865E+03 -0.46421490582E+03  0.18498903792E+02  0.82891944643E+03  0.12699999809E+01 0.  1.
</event>
<event>
 5   0  0.6615842E-05  0.1707912E+04  0.7818609E-02  0.8756864E-01
       -1   -1    0    0    0  501  0.00000000000E+00  0.00000000000E+00  0.63121381079E+03  0.63121381082E+03  0.50400001928E-02 0.  1.
        1   -1    0    0  501    0  0.00000000000E+00  0.00000000000E+00 -0.11552997572E+04  0.11552997572E+04  0.50400001928E-02 0. -1.
    10030    2    1    2    0    0  0.00000000000E+00  0.00000000000E+00 -0.52408594639E+03  0.17865135680E+04  0.17079123659E+04 0.  0.
        3    1    3    3  502    0 -0.25283927632E+03 -0.35278349490E+03 -0.10313187670E+04  0.11189290877E+04  0.10100000352E+00 0. -1.
       -3    1    3    3    0  502  0.25283927632E+03  0.35278349490E+03  0.50723282058E+03  0.66758448035E+03  0.10100000352E+00 0.  1.
</event>
<event>
 5   0  0.1333546E-04  0.1699069E+04  0.7818609E-02  0.8761895E-01
        2   -1    0    0  501    0  0.00000000000E+00  0.00000000000E+00  0.19216374602E+04  0.19216374602E+04  0.25500000920E-02 0.  1.
       -2   -1    0    0    0  501  0.00000000000E+00  0.00000000000E+00 -0.37556977282E+03  0.37556977283E+03  0.25500000920E-02 0. -1.
    10030    2    1    2    0    0  0.00000000000E+00  0.00000000000E+00  0.15460676873E+04  0.22972072330E+04  0.16990690914E+04 0.  0.
        5    1    3    3  502    0  0.47266084415E+03  0.64176288043E+03  0.11704941097E+04  0.14161025454E+04  0.46999998093E+01 0. -1.
       -5    1    3    3    0  502 -0.47266084415E+03 -0.64176288043E+03  0.37557357767E+03  0.88110468761E+03  0.46999998093E+01 0.  1.
</event>
<event>
 5   0  0.1269175E-04  0.1699100E+04  0.7818609E-02  0.8761878E-01
        2   -1    0    0  501    0  0.00000000000E+00  0.00000000000E+00  0.12156851124E+04  0.12156851124E+04  0.25500000920E-02 0.  1.
       -2   -1    0    0    0  501  0.00000000000E+00  0.00000000000E+00 -0.59368603116E+03  0.59368603116E+03  0.25500000920E-02 0. -1.
    10030    2    1    2    0    0  0.00000000000E+00  0.00000000000E+00  0.62199908127E+03  0.18093711436E+04  0.16991000789E+04 0.  0.
        2    1    3    3  502    0  0.74099173540E+03 -0.41067370486E+03  0.24353475634E+03  0.88149351747E+03  0.25500000920E-02 0. -1.
       -2    1    3    3    0  502 -0.74099173540E+03  0.41067370486E+03  0.37846432494E+03  0.92787762612E+03  0.25500000920E-02 0.  1.
</event>
<event>
 5   0  0.4720875E-05  0.1699301E+04  0.7818609E-02  0.8761763E-01
       -3   -1    0    0    0  501  0.00000000000E+00  0.00000000000E+00  0.72365866306E+03  0.72365867011E+03  0.10100000352E+00 0. -1.
        3   -1    0    0  501    0  0.00000000000E+00  0.00000000000E+00 -0.99757781848E+03  0.99757782359E+03  0.10100000352E+00 0.  1.
    10030    2    1    2    0    0  0.00000000000E+00  0.00000000000E+00 -0.27391915542E+03  0.17212364937E+04  0.16993008455E+04 0.  0.
        1    1    3    3  502    0 -0.43220044328E+02 -0.26472423436E+03  0.67964768026E+03  0.73066261831E+03  0.50400001928E-02 0. -1.
       -1    1    3    3    0  502  0.43220044328E+02  0.26472423436E+03 -0.95356683568E+03  0.99057387540E+03  0.50400001928E-02 0.  1.
</event>
<event>
 5   0  0.6834837E-05  0.1699327E+04  0.7818609E-02  0.8761748E-01
        1   -1    0    0  501    0  0.00000000000E+00  0.00000000000E+00  0.86789847613E+03  0.86789847614E+03  0.50400001928E-02 0. -1.
       -1   -1    0    0    0  501  0.00000000000E+00  0.00000000000E+00 -0.83181172182E+03  0.83181172184E+03  0.50400001928E-02 0.  1.
    10030    2    1    2    0    0  0.00000000000E+00  0.00000000000E+00  0.36086754308E+02  0.16997101980E+04  0.16993270737E+04 0.  0.
        5    1    3    3  502    0 -0.55454562035E+03 -0.48142524558E+03  0.44547439663E+03  0.85892993904E+03  0.46999998093E+01 0. -1.
       -5    1    3    3    0  502  0.55454562035E+03  0.48142524558E+03 -0.40938764233E+03  0.84078025894E+03  0.46999998093E+01 0.  1.
</event>
<event>
 5   0  0.6539134E-05  0.1711931E+04  0.7818609E-02  0.8754589E-01
       -1   -1    0    0    0  501  0.00000000000E+00  0.00000000000E+00  0.47957613005E+03  0.47957613007E+03  0.50400001928E-02 0. -1.
        1   -1    0    0  501    0  0.00000000000E+00  0.00000000000E+00 -0.15277589496E+04  0.15277589496E+04  0.50400001928E-02 0.  1.
    10030    2    1    2    0    0  0.00000000000E+00  0.00000000000E+00 -0.10481828196E+04  0.20073350797E+04  0.17119307518E+04 0.  0.
        2    1    3    3  502    0 -0.44390814310E+03 -0.73168445216E+03 -0.50517913986E+03  0.99379200057E+03  0.25500000920E-02 0. -1.
       -2    1    3    3    0  502  0.44390814310E+03  0.73168445216E+03 -0.54300367970E+03  0.10135430791E+04  0.25500000920E-02 0.  1.
</event>
<event>
 5   0  0.6601906E-05  0.1710883E+04  0.7818609E-02  0.8755182E-01
        1   -1    0    0  501    0  0.00000000000E+00  0.00000000000E+00  0.15512104111E+04  0.15512104111E+04  0.50400001928E-02 0. -1.
       -1   -1    0    0    0  501  0.00000000000E+00  0.00000000000E+00 -0.47174773001E+03  0.47174773004E+03  0.50400001928E-02 0.  1.
    10030    2    1    2    0    0  0.00000000000E+00  0.00000000000E+00  0.10794626811E+04  0.20229581411E+04  0.17108828016E+04 0.  0.
        1    1    3    3  502    0 -0.73199430242E+02  0.16743817501E+03 -0.44839957851E+03  0.48420644468E+03  0.50400001928E-02 0.  1.
       -1    1    3    3    0  502  0.73199430242E+02 -0.16743817501E+03  0.15278622596E+04  0.15387516964E+04  0.50400001928E-02 0. -1.
</event>
<event>
 5   0  0.1269175E-04  0.1692805E+04  0.7818609E-02  0.8765478E-01
       -2   -1    0    0    0  501  0.00000000000E+00  0.00000000000E+00  0.83153517214E+03  0.83153517214E+03  0.25500000920E-02 0. -1.
        2   -1    0    0  501    0  0.00000000000E+00  0.00000000000E+00 -0.86153581081E+03  0.86153581081E+03  0.25500000920E-02 0.  1.
    10030    2    1    2    0    0  0.00000000000E+00  0.00000000000E+00 -0.30000638667E+02  0.16930709830E+04  0.16928051616E+04 0.  0.
        2    1    3    3  502    0 -0.40900908883E+02  0.66020860096E+03 -0.54314483544E+03  0.85589403164E+03  0.25500000920E-02 0.  1.
       -2    1    3    3    0  502  0.40900908883E+02 -0.66020860096E+03  0.51314419677E+03  0.83717695132E+03  0.25500000920E-02 0. -1.
</event>
<event>
 5   0  0.6601906E-05  0.1703707E+04  0.7818609E-02  0.8759253E-01
       -1   -1    0    0    0  501  0.00000000000E+00  0.00000000000E+00  0.82444759838E+03  0.82444759840E+03  0.50400001928E-02 0. -1.
        1   -1    0    0  501    0  0.00000000000E+00  0.00000000000E+00 -0.88017070657E+03  0.88017070658E+03  0.50400001928E-02 0.  1.
    10030    2    1    2    0    0  0.00000000000E+00  0.00000000000E+00 -0.55723108187E+02  0.17046183050E+04  0.17037072815E+04 0.  0.
        1    1    3    3  502    0  0.22804760780E+03 -0.46953634109E+03 -0.70141135222E+03  0.87432715392E+03  0.50400001928E-02 0. -1.
       -1    1    3    3    0  502 -0.22804760780E+03  0.46953634109E+03  0.64568824404E+03  0.83029115106E+03  0.50400001928E-02 0.  1.
</event>
<event>
 5   0  0.4720875E-05  0.1700866E+04  0.7818609E-02  0.8760871E-01
        4   -1    0    0  501    0  0.00000000000E+00  0.00000000000E+00  0.56015698730E+03  0.56015842699E+03  0.12699999809E+01 0. -1.
       -4   -1    0    0    0  501  0.00000000000E+00  0.00000000000E+00 -0.12911273982E+04  0.12911280228E+04  0.12699999809E+01 0.  1.
    10030    2    1    2    0    0  0.00000000000E+00  0.00000000000E+00 -0.73097041090E+03  0.18512864498E+04  0.17008655966E+04 0.  0.
        2    1    3    3  502    0  0.56335647121E+03 -0.43411705218E+03 -0.87299122995E+03  0.11260292253E+04  0.25500000920E-02 0.  1.
       -2    1    3    3    0  502 -0.56335647121E+03  0.43411705218E+03  0.14202081905E+03  0.72525722451E+03  0.25500000920E-02 0. -1.
</event>
<event>
 5   0  0.6615842E-05  0.1701428E+04  0.7818609E-02  0.8760550E-01
       -1   -1    0    0    0  501  0.00000000000E+00  0.00000000000E+00  0.58232313038E+03  0.58232313040E+03  0.50400001928E-02 0. -1.
        1   -1    0    0  501    0  0.00000000000E+00  0.00000000000E+00 -0.12428059093E+04  0.12428059093E+04  0.50400001928E-02 0.  1.
    10030    2    1    2    0    0  0.00000000000E+00  0.00000000000E+00 -0.66048277889E+03  0.18251290397E+04  0.17014283735E+04 0.  0.
        3    1    3    3  502    0  0.74159501613E+03  0.10313977393E+03 -0.76347789006E+03  0.10693453510E+04  0.10100000352E+00 0.  1.
       -3    1    3    3    0  502 -0.74159501613E+03 -0.10313977393E+03  0.10299511117E+03  0.75578368866E+03  0.10100000352E+00 0. -1.
</event>
<event>
 5   0  0.4720875E-05  0.1693930E+04  0.7818609E-02  0.8764834E-01
        3   -1    0    0  501    0  0.00000000000E+00  0.00000000000E+00  0.58085595027E+03  0.58085595906E+03  0.10100000352E+00 0.  1.
       -3   -1    0    0    0  501  0.00000000000E+00  0.00000000000E+00 -0.12349871055E+04  0.12349871097E+04  0.10100000352E+00 0. -1.
    10030    2    1    2    0    0  0.00000000000E+00  0.00000000000E+00 -0.65413115527E+03  0.18158430687E+04  0.16939298929E+04 0.  0.
        1    1    3    3  502    0  0.55680642821E+03 -0.59337155004E+03 -0.57898192353E+03  0.99867074789E+03  0.50400001928E-02 0. -1.
       -1    1    3    3    0  502 -0.55680642821E+03  0.59337155004E+03 -0.75149231747E+02  0.81717232084E+03  0.50400001928E-02 0.  1.
</event>
<event>
 5   0  0.6834837E-05  0.1707077E+04  0.7818609E-02  0.8757338E-01
        1   -1    0    0  501    0  0.00000000000E+00  0.00000000000E+00  0.55264513513E+03  0.55264513516E+03  0.50400001928E-02 0.  1.
       -1   -1    0    0    0  501  0.00000000000E+00  0.00000000000E+00 -0.13182562543E+04  0.13182562544E+04  0.50400001928E-02 0. -1.
    10030    2    1    2    0    0  0.00000000000E+00  0.00000000000E+00 -0.76561111922E+03  0.18709013895E+04  0.17070769237E+04 0.  0.
        5    1    3    3  502    0  0.65401653812E+03 -0.19622221070E+03  0.17845948746E+03  0.70576955642E+03  0.46999998093E+01 0.  1.
       -5    1    3    3    0  502 -0.65401653812E+03  0.19622221070E+03 -0.94407060667E+03  0.11651318331E+04  0.46999998093E+01 0. -1.
</event>
<event>
 5   0  0.1269175E-04  0.1703286E+04  0.7818609E-02  0.8759492E-01
       -2   -1    0    0    0  501  0.00000000000E+00  0.00000000000E+00  0.30112284255E+03  0.30112284256E+03  0.25500000920E-02 0.  1.
        2   -1    0    0  501    0  0.00000000000E+00  0.00000000000E+00 -0.24086380208E+04  0.24086380208E+04  0.25500000920E-02 0. -1.
    10030    2    1    2    0    0  0.00000000000E+00  0.00000000000E+00 -0.21075151782E+04  0.27097608633E+04  0.17032861504E+04 0.  0.
        2    1    3    3  502    0 -0.79943298449E+03 -0.95341638859E+01 -0.58691011462E+03  0.99179003808E+03  0.25500000920E-02 0. -1.
       -2    1    3    3    0  502  0.79943298449E+03  0.95341638859E+01 -0.15206050636E+04  0.17179708252E+04  0.25500000920E-02 0.  1.
</event>
<event>
 5   0  0.4720875E-05  0.1633471E+04  0.7818609E-02  0.8800245E-01
       -3   -1    0    0    0  501  0.00000000000E+00  0.00000000000E+00  0.11096017091E+04  0.11096017137E+04  0.10100000352E+00 0. -1.
        3   -1    0    0  501    0  0.00000000000E+00  0.00000000000E+00 -0.60116786552E+03  0.60116787400E+03  0.10100000352E+00 0.  1.
    10030    2    1    2    0    0  0.00000000000E+00  0.00000000000E+00  0.50843384359E+03  0.17107695877E+04  0.16334710309E+04 0.  0.
        1    1    3    3  502    0 -0.55882155017E+03  0.55973548520E+03  0.40934388356E+02  0.79199808238E+03  0.50400001928E-02 0.  1.
       -1    1    3    3    0  502  0.55882155017E+03 -0.55973548520E+03  0.46749945523E+03  0.91877150532E+03  0.50400001928E-02 0. -1.
</event>
<event>
 5   0  0.6601906E-05  0.1698393E+04  0.7818609E-02  0.8762281E-01
       -1   -1    0    0    0  501  0.00000000000E+00  0.00000000000E+00  0.41902782260E+03  0.41902782263E+03  0.50400001928E-02 0.  1.
        1   -1    0    0  501    0  0.00000000000E+00  0.00000000000E+00 -0.17209709737E+04  0.17209709737E+04  0.50400001928E-02 0. -1.
    10030    2    1    2    0    0  0.00000000000E+00  0.00000000000E+00 -0.13019431511E+04  0.21399987964E+04  0.16983930286E+04 0.  0.
        1    1    3    3  502    0  0.77320287931E+03 -0.33910140226E+03 -0.53616317661E+03  0.10001516913E+04  0.50400001928E-02 0.  1.
       -1    1    3    3    0  502 -0.77320287931E+03  0.33910140226E+03 -0.76577997451E+03  0.11398471051E+04  0.50400001928E-02 0. -1.
</event>
<event>
 5   0  0.1269175E-04  0.1690648E+04  0.7818609E-02  0.8766716E-01
        2   -1    0    0  501    0  0.00000000000E+00  0.00000000000E+00  0.57831558115E+03  0.57831558116E+03  0.25500000920E-02 0.  1.
       -2   -1    0    0    0  501  0.00000000000E+00  0.00000000000E+00 -0.12356107114E+04  0.12356107114E+04  0.25500000920E-02 0. -1.
    10030    2    1    2    0    0  0.00000000000E+00  0.00000000000E+00 -0.65729513023E+03  0.18139262925E+04  0.16906483095E+04 0.  0.
        2    1    3    3  502    0  0.40845389081E+03  0.22389541342E+03  0.42820372805E+03  0.63271017835E+03  0.25500000920E-02 0.  1.
       -2    1    3    3    0  502 -0.40845389081E+03 -0.22389541342E+03 -0.10854988583E+04  0.11812161142E+04  0.25500000920E-02 0. -1.
</event>
<event>
 5   0  0.6539134E-05  0.1705726E+04  0.7818609E-02  0.8758105E-01
        1   -1    0    0  501    0  0.00000000000E+00  0.00000000000E+00  0.12366842243E+04  0.12366842243E+04  0.50400001928E-02 0.  1.
       -1   -1    0    0    0  501  0.00000000000E+00  0.00000000000E+00 -0.58816604377E+03  0.58816604380E+03  0.50400001928E-02 0. -1.
    10030    2    1    2    0    0  0.00000000000E+00  0.00000000000E+00  0.64851818055E+03  0.18248502681E+04  0.17057264349E+04 0.  0.
        2    1    3    3  502    0 -0.44742517935E+03  0.36708481674E+03  0.99445501932E+03  0.11506004255E+04  0.25500000920E-02 0.  1.
       -2    1    3    3    0  502  0.44742517935E+03 -0.36708481674E+03 -0.34593683877E+03  0.67424984259E+03  0.25500000920E-02 0. -1.
</event>
<event>
 5   0  0.6539134E-05  0.1702667E+04  0.7818609E-02  0.8759845E-01
        1   -1    0    0  501    0  0.00000000000E+00  0.00000000000E+00  0.18253322491E+04  0.18253322491E+04  0.50400001928E-02 0.  1.
       -1   -1    0    0    0  501  0.00000000000E+00  0.00000000000E+00 -0.39706126300E+03  0.39706126303E+03  0.50400001928E-02 0. -1.
    10030    2    1    2    0    0  0.00000000000E+00  0.00000000000E+00  0.14282709861E+04  0.22223935121E+04  0.17026670000E+04 0.  0.
        2    1    3    3  502    0 -0.23622680295E+03 -0.43525417569E+03 -0.18971030968E+03  0.53031999915E+03  0.25500000920E-02 0. -1.
       -2    1    3    3    0  502  0.23622680295E+03  0.43525417569E+03  0.16179812958E+04  0.16920735130E+04  0.25500000920E-02 0.  1.
</event>
<event>
 5   0  0.6564887E-05  0.1690273E+04  0.7818609E-02  0.8766932E-01
        1   -1    0    0  501    0  0.00000000000E+00  0.00000000000E+00  0.18807408941E+04  0.18807408941E+04  0.50400001928E-02 0.  1.
       -1   -1    0    0    0  501  0.00000000000E+00  0.00000000000E+00 -0.37977345422E+03  0.37977345425E+03  0.50400001928E-02 0. -1.
    10030    2    1    2    0    0  0.00000000000E+00  0.00000000000E+00  0.15009674398E+04  0.22605143483E+04  0.16902727187E+04 0.  0.
        4    1    3    3  502    0  0.81781974279E+03  0.36182436163E+02  0.10313802328E+04  0.13167707082E+04  0.12699999809E+01 0.  1.
       -4    1    3    3    0  502 -0.81781974279E+03 -0.36182436163E+02  0.46958720701E+03  0.94374364013E+03  0.12699999809E+01 0. -1.
</event>
<event>
 5   0  0.6564887E-05  0.1698254E+04  0.7818609E-02  0.8762361E-01
        1   -1    0    0  501    0  0.00000000000E+00  0.00000000000E+00  0.15021748818E+04  0.15021748818E+04  0.50400001928E-02 0.  1.
       -1   -1    0    0    0  501  0.00000000000E+00  0.00000000000E+00 -0.47998188460E+03  0.47998188463E+03  0.50400001928E-02 0. -1.
    10030    2    1    2    0    0  0.00000000000E+00  0.00000000000E+00  0.10221929972E+04  0.19821567664E+04  0.16982540809E+04 0.  0.
        4    1    3    3  502    0  0.18730650931E+03 -0.28146588471E+03 -0.39803209406E+03  0.52224317467E+03  0.12699999809E+01 0. -1.
       -4    1    3    3    0  502 -0.18730650931E+03  0.28146588471E+03  0.14202250912E+04  0.14599135918E+04  0.12699999809E+01 0.  1.
</event>
<event>
 5   0  0.6834837E-05  0.1710373E+04  0.7818609E-02  0.8755470E-01
        1   -1    0    0  501    0  0.00000000000E+00  0.00000000000E+00  0.78888337550E+03  0.78888337551E+03  0.50400001928E-02 0.  1.
       -1   -1    0    0    0  501  0.00000000000E+00  0.00000000000E+00 -0.92706243686E+03  0.92706243687E+03  0.50400001928E-02 0. -1.
    10030    2    1    2    0    0  0.00000000000E+00  0.00000000000E+00 -0.13817906136E+03  0.17159458124E+04  0.17103732277E+04 0.  0.
        5    1    3    3  502    0  0.27987363909E+03 -0.16692701007E+03 -0.86231603238E+03  0.92184863739E+03  0.46999998093E+01 0. -1.
       -5    1    3    3    0  502 -0.27987363909E+03  0.16692701007E+03  0.72413697102E+03  0.79409717500E+03  0.46999998093E+01 0.  1.
</event>
<event>
 5   0  0.6615842E-05  0.1705312E+04  0.7818609E-02  0.8758341E-01
       -1   -1    0    0    0  501  0.00000000000E+00  0.00000000000E+00  0.73828463674E+03  0.73828463676E+03  0.50400001928E-02 0.  1.
        1   -1    0    0  501    0  0.00000000000E+00  0.00000000000E+00 -0.98474501519E+03  0.98474501520E+03  0.50400001928E-02 0. -1.
    10030    2    1    2    0    0  0.00000000000E+00  0.00000000000E+00 -0.24646037844E+03  0.17230296520E+04  0.17053118376E+04 0.  0.
        3    1    3    3  502    0  0.28366132127E+03  0.68047700720E+03  0.30960055954E+03  0.79960316357E+03  0.10100000352E+00 0.  1.
       -3    1    3    3    0  502 -0.28366132127E+03 -0.68047700720E+03 -0.55606093799E+03  0.92342648839E+03  0.10100000352E+00 0. -1.
</event>
<event>
 5   0  0.1333546E-04  0.1690049E+04  0.7818609E-02  0.8767060E-01
       -2   -1    0    0    0  501  0.00000000000E+00  0.00000000000E+00  0.50402479179E+03  0.50402479179E+03  0.25500000920E-02 0. -1.
        2   -1    0    0  501    0  0.00000000000E+00  0.00000000000E+00 -0.14167294881E+04  0.14167294881E+04  0.25500000920E-02 0.  1.
    10030    2    1    2    0    0  0.00000000000E+00  0.00000000000E+00 -0.91270469631E+03  0.19207542799E+04  0.16900494493E+04 0.  0.
        5    1    3    3  502    0 -0.52129505159E+02  0.83631196020E+03 -0.33232443432E+03  0.90144151210E+03  0.46999998093E+01 0. -1.
       -5    1    3    3    0  502  0.52129505159E+02 -0.83631196020E+03 -0.58038026199E+03  0.10193127678E+04  0.46999998093E+01 0.  1.
</event>
<event>
 5   0  0.6834837E-05  0.1710594E+04  0.7818609E-02  0.8755345E-01
        1   -1    0    0  501    0  0.00000000000E+00  0.00000000000E+00  0.78428318728E+03  0.78428318730E+03  0.50400001928E-02 0. -1.
       -1   -1    0    0    0  501  0.00000000000E+00  0.00000000000E+00 -0.93274073153E+03  0.93274073154E+03  0.50400001928E-02 0.  1.
    10030    2    1    2    0    0  0.00000000000E+00  0.00000000000E+00 -0.14845754424E+03  0.17170239188E+04  0.17105939014E+04 0.  0.
        5    1    3    3  502    0 -0.62310295920E+02  0.81681360331E+03  0.17254847775E+03  0.83717507291E+03  0.46999998093E+01 0. -1.
       -5    1    3    3    0  502  0.62310295920E+02 -0.81681360331E+03 -0.32100602200E+03  0.87984884593E+03  0.46999998093E+01 0.  1.
</event>
<event>
 5   0  0.1255362E-04  0.1725096E+04  0.7818609E-02  0.8747179E-01
       -2   -1    0    0    0  501  0.00000000000E+00  0.00000000000E+00  0.95424031489E+03  0.95424031490E+03  0.25500000920E-02 0.  1.
        2   -1    0    0  501    0  0.00000000000E+00  0.00000000000E+00 -0.77966619734E+03  0.77966619734E+03  0.25500000920E-02 0. -1.
    10030    2    1    2    0    0  0.00000000000E+00  0.00000000000E+00  0.17457411755E+03  0.17339065122E+04  0.17250958439E+04 0.  0.
        1    1    3    3  502    0 -0.73111715019E+03 -0.45664830527E+03  0.11792149800E+03  0.87003760937E+03  0.50400001928E-02 0. -1.
       -1    1    3    3    0  502  0.73111715019E+03  0.45664830527E+03  0.56652619551E+02  0.86386890286E+03  0.50400001928E-02 0.  1.
</event>
<event>
 5   0  0.6615842E-05  0.1705214E+04  0.7818609E-02  0.8758396E-01
       -1   -1    0    0    0  501  0.00000000000E+00  0.00000000000E+00  0.93415492797E+03  0.93415492798E+03  0.50400001928E-02 0. -1.
        1   -1    0    0  501    0  0.00000000000E+00  0.00000000000E+00 -0.77817771717E+03  0.77817771719E+03  0.50400001928E-02 0.  1.
    10030    2    1    2    0    0  0.00000000000E+00  0.00000000000E+00  0.15597721080E+03  0.17123326452E+04  0.17052138275E+04 0.  0.
        3    1    3    3  502    0  0.17025750304E+03 -0.38750795007E+03 -0.66522859196E+03  0.78846630776E+03  0.10100000352E+00 0.  1.
       -3    1    3    3    0  502 -0.17025750304E+03  0.38750795007E+03  0.82120580276E+03  0.92386633741E+03  0.10100000352E+00 0. -1.
</event>
<event>
 5   0  0.6564887E-05  0.1701001E+04  0.7818609E-02  0.8760794E-01
       -1   -1    0    0    0  501  0.00000000000E+00  0.00000000000E+00  0.74124951866E+03  0.74124951868E+03  0.50400001928E-02 0. -1.
        1   -1    0    0  501    0  0.00000000000E+00  0.00000000000E+00 -0.97585322877E+03  0.97585322879E+03  0.50400001928E-02 0.  1.
    10030    2    1    2    0    0  0.00000000000E+00  0.00000000000E+00 -0.23460371011E+03  0.17171027475E+04  0.17010005716E+04 0.  0.
        4    1    3    3  502    0  0.32578096556E+03 -0.99446245914E+02 -0.90399049434E+03  0.96603479239E+03  0.12699999809E+01 0.  1.
       -4    1    3    3    0  502 -0.32578096556E+03  0.99446245914E+02  0.66938678423E+03  0.75106795508E+03  0.12699999809E+01 0. -1.
</event>
<event>
 5   0  0.1255362E-04  0.1705547E+04  0.7818609E-02  0.8758207E-01
       -2   -1    0    0    0  501  0.00000000000E+00  0.00000000000E+00  0.10383370951E+04  0.10383370951E+04  0.25500000920E-02 0.  1.
        2   -1    0    0  501    0  0.00000000000E+00  0.00000000000E+00 -0.70037202578E+03  0.70037202579E+03  0.25500000920E-02 0. -1.
    10030    2    1    2    0    0  0.00000000000E+00  0.00000000000E+00  0.33796506931E+03  0.17387091209E+04  0.17055465455E+04 0.  0.
        1    1    3    3  502    0  0.40200858208E+03  0.74449406131E+03  0.27754229472E+03  0.89045608133E+03  0.50400001928E-02 0. -1.
       -1    1    3    3    0  502 -0.40200858208E+03 -0.74449406131E+03  0.60422774588E+02  0.84825303955E+03  0.50400001928E-02 0.  1.
</event>
<event>
 5   0  0.1393870E-04  0.1690014E+04  0.7818609E-02  0.8767080E-01
       -2   -1    0    0    0  501  0.00000000000E+00  0.00000000000E+00  0.41497604668E+03  0.41497604669E+03  0.25500000920E-02 0.  1.
        2   -1    0    0  501    0  0.00000000000E+00  0.00000000000E+00 -0.17206703079E+04  0.17206703079E+04  0.25500000920E-02 0. -1.
    10030    2    1    2    0    0  0.00000000000E+00  0.00000000000E+00 -0.13056942612E+04  0.21356463546E+04  0.16900141562E+04 0.  0.
        3    1    3    3  502    0  0.58604620283E+03 -0.59907618463E+03 -0.78950362925E+03  0.11513724061E+04  0.10100000352E+00 0. -1.
       -3    1    3    3    0  502 -0.58604620283E+03  0.59907618463E+03 -0.51619063194E+03  0.98427394842E+03  0.10100000352E+00 0.  1.
</event>
<event>
 5   0  0.1255362E-04  0.1698579E+04  0.7818609E-02  0.8762175E-01
       -2   -1    0    0    0  501  0.00000000000E+00  0.00000000000E+00  0.37350398633E+03  0.37350398634E+03  0.25500000920E-02 0. -1.
        2   -1    0    0  501    0  0.00000000000E+00  0.00000000000E+00 -0.19311519215E+04  0.19311519215E+04  0.25500000920E-02 0.  1.
    10030    2    1    2    0    0  0.00000000000E+00  0.00000000000E+00 -0.15576479352E+04  0.23046559079E+04  0.16985793369E+04 0.  0.
        1    1    3    3  502    0  0.62450590019E+03 -0.38459954727E+03 -0.19781526940E+03  0.75964156809E+03  0.50400001928E-02 0. -1.
       -1    1    3    3    0  502 -0.62450590019E+03  0.38459954727E+03 -0.13598326658E+04  0.15450143398E+04  0.50400001928E-02 0.  1.
</event>
<event>
 5   0  0.1393870E-04  0.1705079E+04  0.7818609E-02  0.8758473E-01
       -2   -1    0    0    0  501  0.00000000000E+00  0.00000000000E+00  0.11013566812E+04  0.11013566812E+04  0.25500000920E-02 0.  1.
        2   -1    0    0  501    0  0.00000000000E+00  0.00000000000E+00 -0.65993475561E+03  0.65993475562E+03  0.25500000920E-02 0. -1.
    10030    2    1    2    0    0  0.00000000000E+00  0.00000000000E+00  0.44142192557E+03  0.17612914368E+04  0.17050789451E+04 0.  0.
        3    1    3    3  502    0 -0.66378248086E+03  0.52223598022E+03  0.34066845043E+03  0.91070994518E+03  0.10100000352E+00 0.  1.
       -3    1    3    3    0  502  0.66378248086E+03 -0.52223598022E+03  0.10075347514E+03  0.85058149162E+03  0.10100000352E+00 0. -1.
</event>
<event>
 5   0  0.1269175E-04  0.1700108E+04  0.7818609E-02  0.8761303E-01
        2   -1    0    0  501    0  0.00000000000E+00  0.00000000000E+00  0.14763845006E+04  0.14763845006E+04  0.25500000920E-02 0.  1.
       -2   -1    0    0    0  501  0.00000000000E+00  0.00000000000E+00 -0.48943318655E+03  0.48943318655E+03  0.25500000920E-02 0. -1.
    10030    2    1    2    0    0  0.00000000000E+00  0.00000000000E+00  0.98695131405E+03  0.19658176872E+04  0.17001077268E+04 0.  0.
        2    1    3    3  502    0 -0.23676265301E+03 -0.28344364961E+03 -0.39181880220E+03  0.53844111111E+03  0.25500000920E-02 0. -1.
       -2    1    3    3    0  502  0.23676265301E+03  0.28344364961E+03  0.13787701163E+04  0.14273765760E+04  0.25500000920E-02 0.  1.
</event>
<event>
 5   0  0.1255362E-04  0.1699146E+04  0.7818609E-02  0.8761852E-01
       -2   -1    0    0    0  501  0.00000000000E+00  0.00000000000E+00  0.45892221691E+03  0.45892221692E+03  0.25500000920E-02 0.  1.
        2   -1    0    0  501    0  0.00000000000E+00  0.00000000000E+00 -0.15727594030E+04  0.15727594030E+04  0.25500000920E-02 0. -1.
    10030    2    1    2    0    0  0.00000000000E+00  0.00000000000E+00 -0.11138371861E+04  0.20316816200E+04  0.16991459407E+04 0.  0.
        1    1    3    3  502    0  0.82449818675E+03 -0.11113345243E+03 -0.35110982146E+03  0.90300941909E+03  0.50400001928E-02 0.  1.
       -1    1    3    3    0  502 -0.82449818675E+03  0.11113345243E+03 -0.76272736466E+03  0.11286722009E+04  0.50400001928E-02 0. -1.
</event>
<event>
 5   0  0.6834837E-05  0.1697141E+04  0.7818609E-02  0.8762997E-01
       -1   -1    0    0    0  501  0.00000000000E+00  0.00000000000E+00  0.34086141992E+03  0.34086141996E+03  0.50400001928E-02 0. -1.
        1   -1    0    0  501    0  0.00000000000E+00  0.00000000000E+00 -0.21125060385E+04  0.21125060385E+04  0.50400001928E-02 0.  1.
    10030    2    1    2    0    0  0.00000000000E+00  0.00000000000E+00 -0.17716446186E+04  0.24533674585E+04  0.16971408992E+04 0.  0.
        5    1    3    3  502    0  0.15023642008E+03 -0.63958757714E+03 -0.10949082712E+03  0.66607325571E+03  0.46999998093E+01 0. -1.
       -5    1    3    3    0  502 -0.15023642008E+03  0.63958757714E+03 -0.16621537915E+04  0.17872942028E+04  0.46999998093E+01 0.  1.
</event>
<event>
 5   0  0.6834837E-05  0.1700987E+04  0.7818609E-02  0.8760802E-01
        1   -1    0    0  501    0  0.00000000000E+00  0.00000000000E+00  0.83769490178E+03  0.83769490179E+03  0.50400001928E-02 0. -1.
       -1   -1    0    0    0  501  0.00000000000E+00  0.00000000000E+00 -0.86348735923E+03  0.86348735925E+03  0.50400001928E-02 0.  1.
    10030    2    1    2    0    0  0.00000000000E+00  0.00000000000E+00 -0.25792457457E+02  0.17011822610E+04  0.17009867238E+04 0.  0.
        5    1    3    3  502    0  0.84507100059E+03  0.16723236865E+02 -0.10720556254E+03  0.85202100052E+03  0.46999998093E+01 0. -1.
       -5    1    3    3    0  502 -0.84507100059E+03 -0.16723236865E+02  0.81413105081E+02  0.84916126052E+03  0.46999998093E+01 0.  1.
</event>
<event>
 5   0  0.1269175E-04  0.1696940E+04  0.7818609E-02  0.8763111E-01
        2   -1    0    0  501    0  0.00000000000E+00  0.00000000000E+00  0.10149719205E+04  0.10149719205E+04  0.25500000920E-02 0.  1.
       -2   -1    0    0    0  501  0.00000000000E+00  0.00000000000E+00 -0.70928218197E+03  0.70928218197E+03  0.25500000920E-02 0. -1.
    10030    2    1    2    0    0  0.00000000000E+00  0.00000000000E+00  0.30568973850E+03  0.17242541024E+04  0.16969401856E+04 0.  0.
        2    1    3    3  502    0 -0.43342392298E+03  0.61763542502E+03 -0.24143661802E+03  0.79222563439E+03  0.25500000920E-02 0. -1.
       -2    1    3    3    0  502  0.43342392298E+03 -0.61763542502E+03  0.54712635651E+03  0.93202846805E+03  0.25500000920E-02 0.  1.
</event>
<event>
 5   0  0.6615842E-05  0.1689531E+04  0.7818609E-02  0.8767358E-01
       -1   -1    0    0    0  501  0.00000000000E+00  0.00000000000E+00  0.82883493557E+03  0.82883493558E+03  0.50400001928E-02 0.  1.
        1   -1    0    0  501    0  0.00000000000E+00  0.00000000000E+00 -0.86100236861E+03  0.86100236863E+03  0.50400001928E-02 0. -1.
    10030    2    1    2    0    0  0.00000000000E+00  0.00000000000E+00 -0.32167433048E+02  0.16898373042E+04  0.16895311098E+04 0.  0.
        3    1    3    3  502    0  0.51849307636E+03 -0.61686566946E+03 -0.26964594912E+03  0.84974541627E+03  0.10100000352E+00 0. -1.
       -3    1    3    3    0  502 -0.51849307636E+03  0.61686566946E+03  0.23747851607E+03  0.84009188794E+03  0.10100000352E+00 0.  1.
</event>
<event>
 5   0  0.6834837E-05  0.1681666E+04  0.7818609E-02  0.8771890E-01
        1   -1    0    0  501    0  0.00000000000E+00  0.00000000000E+00  0.82169514532E+03  0.82169514533E+03  0.50400001928E-02 0.  1.
       -1   -1    0    0    0  501  0.00000000000E+00  0.00000000000E+00 -0.86041698375E+03  0.86041698377E+03  0.50400001928E-02 0. -1.
    10030    2    1    2    0    0  0.00000000000E+00  0.00000000000E+00 -0.38721838437E+02  0.16821121291E+04  0.16816663861E+04 0.  0.
        5    1    3    3  502    0  0.61611985401E+03 -0.51079136244E+03  0.23851912694E+03  0.83511972457E+03  0.46999998093E+01 0.  1.
       -5    1    3    3    0  502 -0.61611985401E+03  0.51079136244E+03 -0.27724096538E+03  0.84699240453E+03  0.46999998093E+01 0. -1.
</event>
<event>
 5   0  0.4720875E-05  0.1705927E+04  0.7818609E-02  0.8757991E-01
        4   -1    0    0  501    0  0.00000000000E+00  0.00000000000E+00  0.16277203958E+04  0.16277208912E+04  0.12699999809E+01 0. -1.
       -4   -1    0    0    0  501  0.00000000000E+00  0.00000000000E+00 -0.44697155491E+03  0.44697335916E+03  0.12699999809E+01 0.  1.
    10030    2    1    2    0    0  0.00000000000E+00  0.00000000000E+00  0.11807488409E+04  0.20746942504E+04  0.17059274332E+04 0.  0.
        1    1    3    3  502    0 -0.54025416555E+03 -0.47438265770E+03  0.11485327484E+04  0.13550058832E+04  0.50400001928E-02 0.  1.
       -1    1    3    3    0  502  0.54025416555E+03  0.47438265770E+03  0.32216092531E+02  0.71968836725E+03  0.50400001928E-02 0. -1.
</event>
<event>
 5   0  0.1393870E-04  0.1698537E+04  0.7818609E-02  0.8762199E-01
        2   -1    0    0  501    0  0.00000000000E+00  0.00000000000E+00  0.71635363589E+03  0.71635363589E+03  0.25500000920E-02 0.  1.
       -2   -1    0    0    0  501  0.00000000000E+00  0.00000000000E+00 -0.10068444867E+04  0.10068444867E+04  0.25500000920E-02 0. -1.
    10030    2    1    2    0    0  0.00000000000E+00  0.00000000000E+00 -0.29049085083E+03  0.17231981226E+04  0.16985366747E+04 0.  0.
        3    1    3    3  502    0  0.79220929317E+03 -0.30968195720E+02 -0.45413630324E+03  0.91367082992E+03  0.10100000352E+00 0. -1.
       -3    1    3    3    0  502 -0.79220929317E+03  0.30968195720E+02  0.16364545240E+03  0.80952729269E+03  0.10100000352E+00 0.  1.
</event>
<event>
 5   0  0.6834837E-05  0.1698631E+04  0.7818609E-02  0.8762145E-01
        1   -1    0    0  501    0  0.00000000000E+00  0.00000000000E+00  0.83916129184E+03  0.83916129186E+03  0.50400001928E-02 0. -1.
       -1   -1    0    0    0  501  0.00000000000E+00  0.00000000000E+00 -0.85959302952E+03  0.85959302953E+03  0.50400001928E-02 0.  1.
    10030    2    1    2    0    0  0.00000000000E+00  0.00000000000E+00 -0.20431737678E+02  0.16987543214E+04  0.16986314458E+04 0.  0.
        5    1    3    3  502    0  0.53311987866E+03 -0.28340671900E+03  0.58713708626E+03  0.84219250855E+03  0.46999998093E+01 0. -1.
       -5    1    3    3    0  502 -0.53311987866E+03  0.28340671900E+03 -0.60756882394E+03  0.85656181284E+03  0.46999998093E+01 0.  1.
</event>
<event>
 5   0  0.1269175E-04  0.1701782E+04  0.7818609E-02  0.8760348E-01
        2   -1    0    0  501    0  0.00000000000E+00  0.00000000000E+00  0.15928211444E+04  0.15928211444E+04  0.25500000920E-02 0. -1.
       -2   -1    0    0    0  501  0.00000000000E+00  0.00000000000E+00 -0.45454936195E+03  0.45454936196E+03  0.25500000920E-02 0.  1.
    10030    2    1    2    0    0  0.00000000000E+00  0.00000000000E+00  0.11382717824E+04  0.20473705063E+04  0.17017824008E+04 0.  0.
        2    1    3    3  502    0  0.33846157614E+03  0.77887709285E+03  0.50536080867E+03  0.98822836998E+03  0.25500000920E-02 0.  1.
       -2    1    3    3    0  502 -0.33846157614E+03 -0.77887709285E+03  0.63291097374E+03  0.10591421363E+04  0.25500000920E-02 0. -1.
</event>
<event>
 5   0  0.6601906E-05  0.1705072E+04  0.7818609E-02  0.8758477E-01
       -1   -1    0    0    0  501  0.00000000000E+00  0.00000000000E+00  0.11506149685E+04  0.11506149685E+04  0.50400001928E-02 0.  1.
        1   -1    0    0  501    0  0.00000000000E+00  0.00000000000E+00 -0.63167718183E+03  0.63167718185E+03  0.50400001928E-02 0. -1.
    10030    2    1    2    0    0  0.00000000000E+00  0.00000000000E+00  0.51893778666E+03  0.17822921503E+04  0.17050715184E+04 0.  0.
        1    1    3    3  502    0 -0.47066766820E+03  0.55731625410E+03  0.72068622426E+03  0.10254355635E+04  0.50400001928E-02 0. -1.
       -1    1    3    3    0  502  0.47066766820E+03 -0.55731625410E+03 -0.20174843761E+03  0.75685658686E+03  0.50400001928E-02 0.  1.
</event>
<event>
 5   0  0.1255362E-04  0.1705214E+04  0.7818609E-02  0.8758396E-01
        2   -1    0    0  501    0  0.00000000000E+00  0.00000000000E+00  0.13445928883E+04  0.13445928883E+04  0.25500000920E-02 0. -1.
       -2   -1    0    0    0  501  0.00000000000E+00  0.00000000000E+00 -0.54063821526E+03  0.54063821527E+03  0.25500000920E-02 0.  1.
    10030    2    1    2    0    0  0.00000000000E+00  0.00000000000E+00  0.80395467300E+03  0.18852311035E+04  0.17052135343E+04 0.  0.
        1    1    3    3  502    0 -0.23814316356E+03 -0.60775712900E+03  0.10083870903E+04  0.12012183058E+04  0.50400001928E-02 0. -1.
       -1    1    3    3    0  502  0.23814316356E+03  0.60775712900E+03 -0.20443241733E+03  0.68401279774E+03  0.50400001928E-02 0.  1.
</event>
<event>
 5   0  0.6539134E-05  0.1699075E+04  0.7818609E-02  0.8761892E-01
        1   -1    0    0  501    0  0.00000000000E+00  0.00000000000E+00  0.12329977918E+04  0.12329977918E+04  0.50400001928E-02 0. -1.
       -1   -1    0    0    0  501  0.00000000000E+00  0.00000000000E+00 -0.58533289293E+03  0.58533289295E+03  0.50400001928E-02 0.  1.
    10030    2    1    2    0    0  0.00000000000E+00  0.00000000000E+00  0.64766489882E+03  0.18183306847E+04  0.16990752361E+04 0.  0.
        2    1    3    3  502    0 -0.29348181449E+03 -0.36130286253E+03  0.10843764812E+04  0.11800608827E+04  0.25500000920E-02 0. -1.
       -2    1    3    3    0  502  0.29348181449E+03  0.36130286253E+03 -0.43671158240E+03  0.63826980198E+03  0.25500000920E-02 0.  1.
</event>
<event>
 5   0  0.6615842E-05  0.1700630E+04  0.7818609E-02  0.8761005E-01
       -1   -1    0    0    0  501  0.00000000000E+00  0.00000000000E+00  0.57467459185E+03  0.57467459187E+03  0.50400001928E-02 0.  1.
        1   -1    0    0  501    0  0.00000000000E+00  0.00000000000E+00 -0.12581651040E+04  0.12581651040E+04  0.50400001928E-02 0. -1.
    10030    2    1    2    0    0  0.00000000000E+00  0.00000000000E+00 -0.68349051211E+03  0.18328396958E+04  0.17006299040E+04 0.  0.
        3    1    3    3  502    0  0.12432410508E+03  0.70584379679E+03  0.15138905056E+03  0.73252344905E+03  0.10100000352E+00 0.  1.
       -3    1    3    3    0  502 -0.12432410508E+03 -0.70584379679E+03 -0.83487956267E+03  0.11003162468E+04  0.10100000352E+00 0. -1.
</event>
<event>
 5   0  0.6834837E-05  0.1763784E+04  0.7818609E-02  0.8725799E-01
        1   -1    0    0  501    0  0.00000000000E+00  0.00000000000E+00  0.97612690531E+03  0.97612690532E+03  0.50400001928E-02 0. -1.
       -1   -1    0    0    0  501  0.00000000000E+00  0.00000000000E+00 -0.79675469141E+03  0.79675469143E+03  0.50400001928E-02 0.  1.
    10030    2    1    2    0    0  0.00000000000E+00  0.00000000000E+00  0.17937221389E+03  0.17728815967E+04  0.17637842172E+04 0.  0.
        5    1    3    3  502    0 -0.63455264247E+03  0.57289531567E+03  0.30724068692E+03  0.90845199569E+03  0.46999998093E+01 0. -1.
       -5    1    3    3    0  502  0.63455264247E+03 -0.57289531567E+03 -0.12786847303E+03  0.86442960105E+03  0.46999998093E+01 0.  1.
</event>
<event>
 5   0  0.6539134E-05  0.1698613E+04  0.7818609E-02  0.8762156E-01
       -1   -1    0    0    0  501  0.00000000000E+00  0.00000000000E+00  0.83791634934E+03  0.83791634935E+03  0.50400001928E-02 0.  1.
        1   -1    0    0  501    0  0.00000000000E+00  0.00000000000E+00 -0.86085168671E+03  0.86085168672E+03  0.50400001928E-02 0. -1.
    10030    2    1    2    0    0  0.00000000000E+00  0.00000000000E+00 -0.22935337371E+02  0.16987680361E+04  0.16986132022E+04 0.  0.
        2    1    3    3  502    0  0.72475778886E+03 -0.25814068184E+03  0.34830285829E+03  0.84452669894E+03  0.25500000920E-02 0.  1.
       -2    1    3    3    0  502 -0.72475778886E+03  0.25814068184E+03 -0.37123819566E+03  0.85424133713E+03  0.25500000920E-02 0. -1.
</event>
<event>
 5   0  0.1285639E-04  0.1695265E+04  0.7818609E-02  0.8764069E-01
       -2   -1    0    0    0  501  0.00000000000E+00  0.00000000000E+00  0.75176383695E+03  0.75176383695E+03  0.25500000920E-02 0.  1.
        2   -1    0    0  501    0  0.00000000000E+00  0.00000000000E+00 -0.95572696385E+03  0.95572696386E+03  0.25500000920E-02 0. -1.
    10030    2    1    2    0    0  0.00000000000E+00  0.00000000000E+00 -0.20396312690E+03  0.17074908008E+04  0.16952651349E+04 0.  0.
        4    1    3    3  502    0  0.61900683541E+03  0.57904342635E+03 -0.10632597917E+03  0.85426434939E+03  0.12699999809E+01 0.  1.
       -4    1    3    3    0  502 -0.61900683541E+03 -0.57904342635E+03 -0.97637147736E+02  0.85322645142E+03  0.12699999809E+01 0. -1.
</event>
<event>
 5   0  0.6564887E-05  0.1698438E+04  0.7818609E-02  0.8762256E-01
        1   -1    0    0  501    0  0.00000000000E+00  0.00000000000E+00  0.10609443839E+04  0.10609443839E+04  0.50400001928E-02 0. -1.
       -1   -1    0    0    0  501  0.00000000000E+00  0.00000000000E+00 -0.67974596496E+03  0.67974596498E+03  0.50400001928E-02 0.  1.
    10030    2    1    2    0    0  0.00000000000E+00  0.00000000000E+00  0.38119841891E+03  0.17406903489E+04  0.16984377104E+04 0.  0.
        4    1    3    3  502    0 -0.48133508885E+03 -0.42775288438E+03  0.75801027559E+03  0.99460403611E+03  0.12699999809E+01 0. -1.
       -4    1    3    3    0  502  0.48133508885E+03  0.42775288438E+03 -0.37681185668E+03  0.74608631276E+03  0.12699999809E+01 0.  1.
</event>
<event>
 5   0  0.6834837E-05  0.1699225E+04  0.7818609E-02  0.8761806E-01
        1   -1    0    0  501    0  0.00000000000E+00  0.00000000000E+00  0.93242801372E+03  0.93242801373E+03  0.50400001928E-02 0. -1.
       -1   -1    0    0    0  501  0.00000000000E+00  0.00000000000E+00 -0.77415278126E+03  0.77415278127E+03  0.50400001928E-02 0.  1.
    10030    2    1    2    0    0  0.00000000000E+00  0.00000000000E+00  0.15827523246E+03  0.17065807950E+04  0.16992254002E+04 0.  0.
        5    1    3    3  502    0 -0.61597749694E+03  0.32419235912E+03  0.56837114182E+03  0.89866390119E+03  0.46999998093E+01 0. -1.
       -5    1    3    3    0  502  0.61597749694E+03 -0.32419235912E+03 -0.41009590935E+03  0.80791689382E+03  0.46999998093E+01 0.  1.
</event>
<event>
 5   0  0.6539134E-05  0.1701533E+04  0.7818609E-02  0.8760490E-01
       -1   -1    0    0    0  501  0.00000000000E+00  0.00000000000E+00  0.49088250826E+03  0.49088250828E+03  0.50400001928E-02 0.  1.
        1   -1    0    0  501    0  0.00000000000E+00  0.00000000000E+00 -0.14744951568E+04  0.14744951568E+04  0.50400001928E-02 0. -1.
    10030    2    1    2    0    0  0.00000000000E+00  0.00000000000E+00 -0.98361264858E+03  0.19653776651E+04  0.17015332862E+04 0.  0.
        2    1    3    3  502    0 -0.50374242279E+03  0.50251536372E+03  0.46910967795E+02  0.71307696513E+03  0.25500000920E-02 0.  1.
       -2    1    3    3    0  502  0.50374242279E+03 -0.50251536372E+03 -0.10305236164E+04  0.12523007000E+04  0.25500000920E-02 0. -1.
</event>
<event>
 5   0  0.1255362E-04  0.1724921E+04  0.7818609E-02  0.8747277E-01
        2   -1    0    0  501    0  0.00000000000E+00  0.00000000000E+00  0.96177694657E+03  0.96177694658E+03  0.25500000920E-02 0.  1.
       -2   -1    0    0    0  501  0.00000000000E+00  0.00000000000E+00 -0.77339993210E+03  0.77339993210E+03  0.25500000920E-02 0. -1.
    10030    2    1    2    0    0  0.00000000000E+00  0.00000000000E+00  0.18837701448E+03  0.17351768787E+04  0.17249211288E+04 0.  0.
        1    1    3    3  502    0  0.75964384805E+03  0.13404653958E+03 -0.29386533728E+03  0.82545992461E+03  0.50400001928E-02 0. -1.
       -1    1    3    3    0  502 -0.75964384805E+03 -0.13404653958E+03  0.48224235176E+03  0.90971695407E+03  0.50400001928E-02 0.  1.
</event>
<event>
 5   0  0.1393870E-04  0.1698589E+04  0.7818609E-02  0.8762170E-01
       -2   -1    0    0    0  501  0.00000000000E+00  0.00000000000E+00  0.24190592615E+04  0.24190592615E+04  0.25500000920E-02 0. -1.
        2   -1    0    0  501    0  0.00000000000E+00  0.00000000000E+00 -0.29817414590E+03  0.29817414591E+03  0.25500000920E-02 0.  1.
    10030    2    1    2    0    0  0.00000000000E+00  0.00000000000E+00  0.21208851156E+04  0.27172334074E+04  0.16985887427E+04 0.  0.
        3    1    3    3  502    0 -0.62744033806E+03  0.35328048945E+03  0.17808629471E+04  0.19209272054E+04  0.10100000352E+00 0. -1.
       -3    1    3    3    0  502  0.62744033806E+03 -0.35328048945E+03  0.34002216853E+03  0.79630620200E+03  0.10100000352E+00 0.  1.
</event>
<event>
 5   0  0.1393870E-04  0.1698239E+04  0.7818609E-02  0.8762370E-01
       -2   -1    0    0    0  501  0.00000000000E+00  0.00000000000E+00  0.55417448626E+03  0.55417448627E+03  0.25500000920E-02 0.  1.
        2   -1    0    0  501    0  0.00000000000E+00  0.00000000000E+00 -0.13010409407E+04  0.13010409407E+04  0.25500000920E-02 0. -1.
    10030    2    1    2    0    0  0.00000000000E+00  0.00000000000E+00 -0.74686645444E+03  0.18552154270E+04  0.16982387287E+04 0.  0.
        3    1    3    3  502    0 -0.72578216033E+03 -0.84317206509E+02 -0.84601024113E+03  0.11178561955E+04  0.10100000352E+00 0. -1.
       -3    1    3    3    0  502  0.72578216033E+03  0.84317206509E+02  0.99143786689E+02  0.73735923145E+03  0.10100000352E+00 0.  1.
</event>
<event>
 5   0  0.6564887E-05  0.1700934E+04  0.7818609E-02  0.8760832E-01
       -1   -1    0    0    0  501  0.00000000000E+00  0.00000000000E+00  0.29949433408E+03  0.29949433413E+03  0.50400001928E-02 0.  1.
        1   -1    0    0  501    0  0.00000000000E+00  0.00000000000E+00 -0.24150524725E+04  0.24150524725E+04  0.50400001928E-02 0. -1.
    10030    2    1    2    0    0  0.00000000000E+00  0.00000000000E+00 -0.21155581384E+04  0.27145468067E+04  0.17009344868E+04 0.  0.
        4    1    3    3  502    0  0.36546632444E+03 -0.76475607146E+03 -0.11692127513E+04  0.14441182617E+04  0.12699999809E+01 0.  1.
       -4    1    3    3    0  502 -0.36546632444E+03  0.76475607146E+03 -0.94634538712E+03  0.12704285449E+04  0.12699999809E+01 0. -1.
</event>
<event>
 5   0  0.1255362E-04  0.1706894E+04  0.7818609E-02  0.8757442E-01
        2   -1    0    0  501    0  0.00000000000E+00  0.00000000000E+00  0.80370372461E+03  0.80370372461E+03  0.25500000920E-02 0.  1.
       -2   -1    0    0    0  501  0.00000000000E+00  0.00000000000E+00 -0.90626859281E+03  0.90626859282E+03  0.25500000920E-02 0. -1.
    10030    2    1    2    0    0  0.00000000000E+00  0.00000000000E+00 -0.10256486820E+03  0.17099723174E+04  0.17068936037E+04 0.  0.
        1    1    3    3  502    0 -0.76696454566E+03  0.78127105362E+02  0.31548306273E+03  0.83298740794E+03  0.50400001928E-02 0. -1.
       -1    1    3    3    0  502  0.76696454566E+03 -0.78127105362E+02 -0.41804793094E+03  0.87698490949E+03  0.50400001928E-02 0.  1.
</event>
<event>
 5   0  0.6539134E-05  0.1701619E+04  0.7818609E-02  0.8760442E-01
       -1   -1    0    0    0  501  0.00000000000E+00  0.00000000000E+00  0.52891471293E+03  0.52891471296E+03  0.50400001928E-02 0.  1.
        1   -1    0    0  501    0  0.00000000000E+00  0.00000000000E+00 -0.13686074570E+04  0.13686074570E+04  0.50400001928E-02 0. -1.
    10030    2    1    2    0    0  0.00000000000E+00  0.00000000000E+00 -0.83969274405E+03  0.18975221699E+04  0.17016187825E+04 0.  0.
        2    1    3    3  502    0  0.48292041653E+03  0.56991018446E+03 -0.87400170355E+03  0.11497341975E+04  0.25500000920E-02 0. -1.
       -2    1    3    3    0  502 -0.48292041653E+03 -0.56991018446E+03  0.34308959501E+02  0.74778797246E+03  0.25500000920E-02 0.  1.
</event>
<event>
 5   0  0.6601906E-05  0.1703984E+04  0.7818609E-02  0.8759095E-01
       -1   -1    0    0    0  501  0.00000000000E+00  0.00000000000E+00  0.94487204096E+03  0.94487204098E+03  0.50400001928E-02 0.  1.
        1   -1    0    0  501    0  0.00000000000E+00  0.00000000000E+00 -0.76824240819E+03  0.76824240820E+03  0.50400001928E-02 0. -1.
    10030    2    1    2    0    0  0.00000000000E+00  0.00000000000E+00  0.17662963278E+03  0.17131144492E+04  0.17039844743E+04 0.  0.
        1    1    3    3  502    0  0.57654276574E+02  0.11216687379E+02 -0.76620457003E+03  0.76845251828E+03  0.50400001928E-02 0. -1.
       -1    1    3    3    0  502 -0.57654276574E+02 -0.11216687379E+02  0.94283420281E+03  0.94466193090E+03  0.50400001928E-02 0.  1.
</event>
<event>
 5   0  0.6834837E-05  0.1714404E+04  0.7818609E-02  0.8753191E-01
        1   -1    0    0  501    0  0.00000000000E+00  0.00000000000E+00  0.88044434507E+03  0.88044434509E+03  0.50400001928E-02 0. -1.
       -1   -1    0    0    0  501  0.00000000000E+00  0.00000000000E+00 -0.83457343304E+03  0.83457343306E+03  0.50400001928E-02 0.  1.
    10030    2    1    2    0    0  0.00000000000E+00  0.00000000000E+00  0.45870912029E+02  0.17150177781E+04  0.17144042227E+04 0.  0.
        5    1    3    3  502    0 -0.39988687834E+03 -0.70882925646E+03  0.29215058922E+03  0.86470948130E+03  0.46999998093E+01 0. -1.
       -5    1    3    3    0  502  0.39988687834E+03  0.70882925646E+03 -0.24627967719E+03  0.85030829684E+03  0.46999998093E+01 0.  1.
</event>
<event>
 5   0  0.1269175E-04  0.1704711E+04  0.7818609E-02  0.8758682E-01
       -2   -1    0    0    0  501  0.00000000000E+00  0.00000000000E+00  0.67284485731E+03  0.67284485731E+03  0.25500000920E-02 0.  1.
        2   -1    0    0  501    0  0.00000000000E+00  0.00000000000E+00 -0.10797590207E+04  0.10797590207E+04  0.25500000920E-02 0. -1.
    10030    2    1    2    0    0  0.00000000000E+00  0.00000000000E+00 -0.40691416336E+03  0.17526038780E+04  0.17047114761E+04 0.  0.
        2    1    3    3  502    0  0.68455164052E+03 -0.49496326155E+03 -0.32027466162E+03  0.90342428444E+03  0.25500000920E-02 0. -1.
       -2    1    3    3    0  502 -0.68455164052E+03  0.49496326155E+03 -0.86639501740E+02  0.84917959355E+03  0.25500000920E-02 0.  1.
</event>
<event>
 5   0  0.1255362E-04  0.1694501E+04  0.7818609E-02  0.8764507E-01
       -2   -1    0    0    0  501  0.00000000000E+00  0.00000000000E+00  0.54234725280E+03  0.54234725280E+03  0.25500000920E-02 0. -1.
        2   -1    0    0  501    0  0.00000000000E+00  0.00000000000E+00 -0.13235681833E+04  0.13235681833E+04  0.25500000920E-02 0.  1.
    10030    2    1    2    0    0  0.00000000000E+00  0.00000000000E+00 -0.78122093055E+03  0.18659154362E+04  0.16945011869E+04 0.  0.
        1    1    3    3  502    0  0.75785083013E+03  0.21155822053E+03 -0.44596189409E+02  0.78808856198E+03  0.50400001928E-02 0. -1.
       -1    1    3    3    0  502 -0.75785083013E+03 -0.21155822053E+03 -0.73662474114E+03  0.10778268742E+04  0.50400001928E-02 0.  1.
</event>
<event>
 5   0  0.1333546E-04  0.1693032E+04  0.7818609E-02  0.8765348E-01
        2   -1    0    0  501    0  0.00000000000E+00  0.00000000000E+00  0.14993631714E+04  0.14993631714E+04  0.25500000920E-02 0. -1.
       -2   -1    0    0    0  501  0.00000000000E+00  0.00000000000E+00 -0.47792937483E+03  0.47792937483E+03  0.25500000920E-02 0.  1.
    10030    2    1    2    0    0  0.00000000000E+00  0.00000000000E+00  0.10214337965E+04  0.19772925462E+04  0.16930324310E+04 0.  0.
        5    1    3    3  502    0  0.11752059034E+03 -0.42282239346E+03  0.13561165677E+04  0.14253645501E+04  0.46999998093E+01 0. -1.
       -5    1    3    3    0  502 -0.11752059034E+03  0.42282239346E+03 -0.33468277115E+03  0.55192799609E+03  0.46999998093E+01 0.  1.
</event>
<event>
 5   0  0.4720875E-05  0.1680246E+04  0.7818609E-02  0.8772711E-01
        3   -1    0    0  501    0  0.00000000000E+00  0.00000000000E+00  0.14190151005E+04  0.14190151041E+04  0.10100000352E+00 0. -1.
       -3   -1    0    0    0  501  0.00000000000E+00  0.00000000000E+00 -0.49739211840E+03  0.49739212866E+03  0.10100000352E+00 0.  1.
    10030    2    1    2    0    0  0.00000000000E+00  0.00000000000E+00  0.92162298214E+03  0.19164072328E+04  0.16802463393E+04 0.  0.
        3    1    3    3  502    0 -0.43681554653E+03  0.64632542532E+03  0.10510837023E+03  0.78714176411E+03  0.10100000352E+00 0.  1.
       -3    1    3    3    0  502  0.43681554653E+03 -0.64632542532E+03  0.81651461190E+03  0.11292654687E+04  0.10100000352E+00 0. -1.
</event>
<event>
 5   0  0.6539134E-05  0.1723744E+04  0.7818609E-02  0.8747937E-01
        1   -1    0    0  501    0  0.00000000000E+00  0.00000000000E+00  0.14314176241E+04  0.14314176241E+04  0.50400001928E-02 0.  1.
       -1   -1    0    0    0  501  0.00000000000E+00  0.00000000000E+00 -0.51894259568E+03  0.51894259570E+03  0.50400001928E-02 0. -1.
    10030    2    1    2    0    0  0.00000000000E+00  0.00000000000E+00  0.91247502840E+03  0.19503602198E+04  0.17237442703E+04 0.  0.
        2    1    3    3  502    0 -0.26254883456E+03 -0.26720378987E+03 -0.42201275901E+03  0.56429117007E+03  0.25500000920E-02 0. -1.
       -2    1    3    3    0  502  0.26254883456E+03  0.26720378987E+03  0.13344877874E+04  0.13860690497E+04  0.25500000920E-02 0.  1.
</event>
<event>
 5   0  0.1285639E-04  0.1704045E+04  0.7818609E-02  0.8759061E-01
        2   -1    0    0  501    0  0.00000000000E+00  0.00000000000E+00  0.98382659547E+03  0.98382659548E+03  0.25500000920E-02 0.  1.
       -2   -1    0    0    0  501  0.00000000000E+00  0.00000000000E+00 -0.73787656936E+03  0.73787656937E+03  0.25500000920E-02 0. -1.
    10030    2    1    2    0    0  0.00000000000E+00  0.00000000000E+00  0.24595002611E+03  0.17217031648E+04  0.17040452965E+04 0.  0.
        4    1    3    3  502    0 -0.23155324195E+03  0.36298728219E+03 -0.61987447253E+03  0.75473349302E+03  0.12699999809E+01 0. -1.
       -4    1    3    3    0  502  0.23155324195E+03 -0.36298728219E+03  0.86582449864E+03  0.96696967183E+03  0.12699999809E+01 0.  1.
</event>
<event>
 5   0  0.1255362E-04  0.1698114E+04  0.7818609E-02  0.8762441E-01
       -2   -1    0    0    0  501  0.00000000000E+00  0.00000000000E+00  0.15413192167E+04  0.15413192167E+04  0.25500000920E-02 0. -1.
        2   -1    0    0  501    0  0.00000000000E+00  0.00000000000E+00 -0.46771453466E+03  0.46771453466E+03  0.25500000920E-02 0.  1.
    10030    2    1    2    0    0  0.00000000000E+00  0.00000000000E+00  0.10736046820E+04  0.20090337513E+04  0.16981135418E+04 0.  0.
        1    1    3    3  502    0 -0.41125320063E+03 -0.46352965916E+03 -0.14991255164E+03  0.63754428326E+03  0.50400001928E-02 0.  1.
       -1    1    3    3    0  502  0.41125320063E+03  0.46352965916E+03  0.12235172336E+04  0.13714894681E+04  0.50400001928E-02 0. -1.
</event>
<event>
 5   0  0.6601906E-05  0.1701219E+04  0.7818609E-02  0.8760670E-01
       -1   -1    0    0    0  501  0.00000000000E+00  0.00000000000E+00  0.11916658216E+04  0.11916658217E+04  0.50400001928E-02 0. -1.
        1   -1    0    0  501    0  0.00000000000E+00  0.00000000000E+00 -0.60716364879E+03  0.60716364881E+03  0.50400001928E-02 0.  1.
    10030    2    1    2    0    0  0.00000000000E+00  0.00000000000E+00  0.58450217286E+03  0.17988294705E+04  0.17012185849E+04 0.  0.
        1    1    3    3  502    0  0.83532512622E+03  0.48658389877E+01  0.12259420559E+03  0.84428732204E+03  0.50400001928E-02 0.  1.
       -1    1    3    3    0  502 -0.83532512622E+03 -0.48658389877E+01  0.46190796726E+03  0.95454214843E+03  0.50400001928E-02 0. -1.
</event>
<event>
 5   0  0.6834837E-05  0.1699912E+04  0.7818609E-02  0.8761414E-01
        1   -1    0    0  501    0  0.00000000000E+00  0.00000000000E+00  0.10926049504E+04  0.10926049505E+04  0.50400001928E-02 0. -1.
       -1   -1    0    0    0  501  0.00000000000E+00  0.00000000000E+00 -0.66119555411E+03  0.66119555413E+03  0.50400001928E-02 0.  1.
    10030    2    1    2    0    0  0.00000000000E+00  0.00000000000E+00  0.43140939634E+03  0.17538005046E+04  0.16999123926E+04 0.  0.
        5    1    3    3  502    0  0.18178243115E+03 -0.22870024239E+03  0.10391638191E+04  0.10794592100E+04  0.46999998093E+01 0. -1.
       -5    1    3    3    0  502 -0.18178243115E+03  0.22870024239E+03 -0.60775442278E+03  0.67434129457E+03  0.46999998093E+01 0.  1.
</event>
<event>
 5   0  0.1333546E-04  0.1703565E+04  0.7818609E-02  0.8759334E-01
        2   -1    0    0  501    0  0.00000000000E+00  0.00000000000E+00  0.13444451853E+04  0.13444451853E+04  0.25500000920E-02 0.  1.
       -2   -1    0    0    0  501  0.00000000000E+00  0.00000000000E+00 -0.53965242569E+03  0.53965242570E+03  0.25500000920E-02 0. -1.
    10030    2    1    2    0    0  0.00000000000E+00  0.00000000000E+00  0.80479275962E+03  0.18840976110E+04  0.17035646222E+04 0.  0.
        5    1    3    3  502    0  0.32347234686E+03 -0.75242413963E+03  0.14364918912E+03  0.83152487913E+03  0.46999998093E+01 0.  1.
       -5    1    3    3    0  502 -0.32347234686E+03  0.75242413963E+03  0.66114357050E+03  0.10525727319E+04  0.46999998093E+01 0. -1.
</event>
<event>
 5   0  0.1333546E-04  0.1770756E+04  0.7818609E-02  0.8722008E-01
        2   -1    0    0  501    0  0.00000000000E+00  0.00000000000E+00  0.14723520202E+04  0.14723520202E+04  0.25500000920E-02 0. -1.
       -2   -1    0    0    0  501  0.00000000000E+00  0.00000000000E+00 -0.53240936096E+03  0.53240936097E+03  0.25500000920E-02 0.  1.
    10030    2    1    2    0    0  0.00000000000E+00  0.00000000000E+00  0.93994265928E+03  0.20047613812E+04  0.17707557688E+04 0.  0.
        5    1    3    3  502    0  0.43022613778E+03  0.65589909853E+03  0.93480651884E+03  0.12203210540E+04  0.46999998093E+01 0. -1.
       -5    1    3    3    0  502 -0.43022613778E+03 -0.65589909853E+03  0.51361404440E+01  0.78444032725E+03  0.46999998093E+01 0.  1.
</event>
<event>
 5   0  0.1333546E-04  0.1723675E+04  0.7818609E-02  0.8747976E-01
        2   -1    0    0  501    0  0.00000000000E+00  0.00000000000E+00  0.18234629148E+04  0.18234629148E+04  0.25500000920E-02 0. -1.
       -2   -1    0    0    0  501  0.00000000000E+00  0.00000000000E+00 -0.40733706379E+03  0.40733706380E+03  0.25500000920E-02 0.  1.
    10030    2    1    2    0    0  0.00000000000E+00  0.00000000000E+00  0.14161258510E+04  0.22307999786E+04  0.17236751778E+04 0.  0.
        5    1    3    3  502    0 -0.30241497362E+03 -0.68927220096E+03  0.12513095176E+04  0.14602563412E+04  0.46999998093E+01 0. -1.
       -5    1    3    3    0  502  0.30241497362E+03  0.68927220096E+03  0.16481633338E+03  0.77054363733E+03  0.46999998093E+01 0.  1.
</event>
<event>
 5   0  0.1285639E-04  0.1705205E+04  0.7818609E-02  0.8758401E-01
       -2   -1    0    0    0  501  0.00000000000E+00  0.00000000000E+00  0.61293067382E+03  0.61293067382E+03  0.25500000920E-02 0. -1.
        2   -1    0    0  501    0  0.00000000000E+00  0.00000000000E+00 -0.11859924641E+04  0.11859924641E+04  0.25500000920E-02 0.  1.
    10030    2    1    2    0    0  0.00000000000E+00  0.00000000000E+00 -0.57306179029E+03  0.17989231379E+04  0.17052051609E+04 0.  0.
        4    1    3    3  502    0 -0.63490098849E+02 -0.17479844414E+03  0.59127188941E+03  0.61983025808E+03  0.12699999809E+01 0. -1.
       -4    1    3    3    0  502  0.63490098849E+02  0.17479844414E+03 -0.11643336797E+04  0.11790928799E+04  0.12699999809E+01 0.  1.
</event>
<event>
 5   0  0.1285639E-04  0.1698067E+04  0.7818609E-02  0.8762467E-01
       -2   -1    0    0    0  501  0.00000000000E+00  0.00000000000E+00  0.66414520814E+03  0.66414520815E+03  0.25500000920E-02 0. -1.
        2   -1    0    0  501    0  0.00000000000E+00  0.00000000000E+00 -0.10853923024E+04  0.10853923024E+04  0.25500000920E-02 0.  1.
    10030    2    1    2    0    0  0.00000000000E+00  0.00000000000E+00 -0.42124709428E+03  0.17495375106E+04  0.16980672503E+04 0.  0.
        4    1    3    3  502    0 -0.24187044952E+03  0.53919513318E+03 -0.83871100212E+03  0.10259973021E+04  0.12699999809E+01 0.  1.
       -4    1    3    3    0  502  0.24187044952E+03 -0.53919513318E+03  0.41746390784E+03  0.72354020845E+03  0.12699999809E+01 0. -1.
</event>
<event>
 5   0  0.6834837E-05  0.1675730E+04  0.7818609E-02  0.8775329E-01
       -1   -1    0    0    0  501  0.00000000000E+00  0.00000000000E+00  0.54488273528E+03  0.54488273531E+03  0.50400001928E-02 0. -1.
        1   -1    0    0  501    0  0.00000000000E+00  0.00000000000E+00 -0.12883828726E+04  0.12883828726E+04  0.50400001928E-02 0.  1.
    10030    2    1    2    0    0  0.00000000000E+00  0.00000000000E+00 -0.74350013734E+03  0.18332656079E+04  0.16757297918E+04 0.  0.
        5    1    3    3  502    0 -0.68283481135E+03  0.47886412198E+03 -0.28408395393E+03  0.88107888965E+03  0.46999998093E+01 0. -1.
       -5    1    3    3    0  502  0.68283481135E+03 -0.47886412198E+03 -0.45941618341E+03  0.95218671829E+03  0.46999998093E+01 0.  1.
</event>
<event>
 5   0  0.1393870E-04  0.1695473E+04  0.7818609E-02  0.8763950E-01
        2   -1    0    0  501    0  0.00000000000E+00  0.00000000000E+00  0.13864058247E+04  0.13864058247E+04  0.25500000920E-02 0. -1.
       -2   -1    0    0    0  501  0.00000000000E+00  0.00000000000E+00 -0.51836007456E+03  0.51836007456E+03  0.25500000920E-02 0.  1.
    10030    2    1    2    0    0  0.00000000000E+00  0.00000000000E+00  0.86804575011E+03  0.19047658992E+04  0.16954732987E+04 0.  0.
        3    1    3    3  502    0  0.82125157090E+03 -0.14802688437E+03  0.26628988087E+03  0.87594315572E+03  0.10100000352E+00 0. -1.
       -3    1    3    3    0  502 -0.82125157090E+03  0.14802688437E+03  0.60175586924E+03  0.10288227435E+04  0.10100000352E+00 0.  1.
</event>
<event>
 5   0  0.1269175E-04  0.1703375E+04  0.7818609E-02  0.8759442E-01
       -2   -1    0    0    0  501  0.00000000000E+00  0.00000000000E+00  0.57840607349E+03  0.57840607350E+03  0.25500000920E-02 0.  1.
        2   -1    0    0  501    0  0.00000000000E+00  0.00000000000E+00 -0.12540867718E+04  0.12540867718E+04  0.25500000920E-02 0. -1.
    10030    2    1    2    0    0  0.00000000000E+00  0.00000000000E+00 -0.67568069830E+03  0.18324928453E+04  0.17033747744E+04 0.  0.
        2    1    3    3  502    0  0.99228928115E+02 -0.64416856373E+03 -0.92764236840E+03  0.11337194901E+04  0.25500000920E-02 0. -1.
       -2    1    3    3    0  502 -0.99228928115E+02  0.64416856373E+03  0.25196167010E+03  0.69877335516E+03  0.25500000920E-02 0.  1.
</event>
<event>
 5   0  0.6615842E-05  0.1696414E+04  0.7818609E-02  0.8763412E-01
       -1   -1    0    0    0  501  0.00000000000E+00  0.00000000000E+00  0.64990915012E+03  0.64990915014E+03  0.50400001928E-02 0.  1.
        1   -1    0    0  501    0  0.00000000000E+00  0.00000000000E+00 -0.11070091956E+04  0.11070091956E+04  0.50400001928E-02 0. -1.
    10030    2    1    2    0    0  0.00000000000E+00  0.00000000000E+00 -0.45710004544E+03  0.17569183457E+04  0.16964143427E+04 0.  0.
        3    1    3    3  502    0 -0.33262705203E+03 -0.78015360755E+03 -0.24225013079E+03  0.88202355024E+03  0.10100000352E+00 0.  1.
       -3    1    3    3    0  502  0.33262705203E+03  0.78015360755E+03 -0.21484991465E+03  0.87489479547E+03  0.10100000352E+00 0. -1.
</event>
<event>
 5   0  0.1333546E-04  0.1699105E+04  0.7818609E-02  0.8761875E-01
       -2   -1    0    0    0  501  0.00000000000E+00  0.00000000000E+00  0.70130773372E+03  0.70130773372E+03  0.25500000920E-02 0.  1.
        2   -1    0    0  501    0  0.00000000000E+00  0.00000000000E+00 -0.10291339391E+04  0.10291339391E+04  0.25500000920E-02 0. -1.
    10030    2    1    2    0    0  0.00000000000E+00  0.00000000000E+00 -0.32782620533E+03  0.17304416728E+04  0.16991051651E+04 0.  0.
        5    1    3    3  502    0 -0.19583618458E+03 -0.79781099927E+03  0.56558740606E+02  0.82345320625E+03  0.46999998093E+01 0. -1.
       -5    1    3    3    0  502  0.19583618458E+03  0.79781099927E+03 -0.38438494594E+03  0.90698846653E+03  0.46999998093E+01 0.  1.
</event>
<event>
 5   0  0.1269175E-04  0.1699058E+04  0.7818609E-02  0.8761902E-01
        2   -1    0    0  501    0  0.00000000000E+00  0.00000000000E+00  0.12266493683E+04  0.12266493683E+04  0.25500000920E-02 0. -1.
       -2   -1    0    0    0  501  0.00000000000E+00  0.00000000000E+00 -0.58835018666E+03  0.58835018666E+03  0.25500000920E-02 0.  1.
    10030    2    1    2    0    0  0.00000000000E+00  0.00000000000E+00  0.63829918162E+03  0.18149995549E+04  0.16990578387E+04 0.  0.
        2    1    3    3  502    0  0.63912371011E+03  0.49095952728E+02 -0.27639701019E+03  0.69805790350E+03  0.25500000920E-02 0.  1.
       -2    1    3    3    0  502 -0.63912371011E+03 -0.49095952728E+02  0.91469619182E+03  0.11169416514E+04  0.25500000920E-02 0. -1.
</event>
<event>
 5   0  0.6601906E-05  0.1698791E+04  0.7818609E-02  0.8762054E-01
        1   -1    0    0  501    0  0.00000000000E+00  0.00000000000E+00  0.88147570668E+03  0.88147570670E+03  0.50400001928E-02 0.  1.
       -1   -1    0    0    0  501  0.00000000000E+00  0.00000000000E+00 -0.81848240728E+03  0.81848240730E+03  0.50400001928E-02 0. -1.
    10030    2    1    2    0    0  0.00000000000E+00  0.00000000000E+00  0.62993299401E+02  0.16999581140E+04  0.16987905797E+04 0.  0.
        1    1    3    3  502    0 -0.54661421170E+03 -0.41776880376E+03 -0.46699678650E+03  0.83150698641E+03  0.50400001928E-02 0. -1.
       -1    1    3    3    0  502  0.54661421170E+03  0.41776880376E+03  0.52999008590E+03  0.86845112759E+03  0.50400001928E-02 0.  1.
</event>
<event>
 5   0  0.1333546E-04  0.1704382E+04  0.7818609E-02  0.8758869E-01
       -2   -1    0    0    0  501  0.00000000000E+00  0.00000000000E+00  0.60744879591E+03  0.60744879592E+03  0.25500000920E-02 0. -1.
        2   -1    0    0  501    0  0.00000000000E+00  0.00000000000E+00 -0.11955408196E+04  0.11955408196E+04  0.25500000920E-02 0.  1.
    10030    2    1    2    0    0  0.00000000000E+00  0.00000000000E+00 -0.58809202370E+03  0.18029896155E+04  0.17043823883E+04 0.  0.
        5    1    3    3  502    0 -0.11054746651E+03  0.50125308881E+03 -0.10136459444E+04  0.11362110685E+04  0.46999998093E+01 0.  1.
       -5    1    3    3    0  502  0.11054746651E+03 -0.50125308881E+03  0.42555392074E+03  0.66677854708E+03  0.46999998093E+01 0. -1.
</event>
<event>
 5   0  0.4720875E-05  0.1694010E+04  0.7818609E-02  0.8764788E-01
       -4   -1    0    0    0  501  0.00000000000E+00  0.00000000000E+00  0.57440324944E+03  0.57440465341E+03  0.12699999809E+01 0. -1.
        4   -1    0    0  501    0  0.00000000000E+00  0.00000000000E+00 -0.12489761679E+04  0.12489768136E+04  0.12699999809E+01 0.  1.
    10030    2    1    2    0    0  0.00000000000E+00  0.00000000000E+00 -0.67457291845E+03  0.18233814670E+04  0.16940104344E+04 0.  0.
        1    1    3    3  502    0 -0.20904785612E+03 -0.68720569139E+03 -0.82041360704E+03  0.10904270517E+04  0.50400001928E-02 0.  1.
       -1    1    3    3    0  502  0.20904785612E+03  0.68720569139E+03  0.14584068859E+03  0.73295441530E+03  0.50400001928E-02 0. -1.
</event>
<event>
 5   0  0.1393870E-04  0.1768008E+04  0.7818609E-02  0.8723500E-01
        2   -1    0    0  501    0  0.00000000000E+00  0.00000000000E+00  0.81152160362E+03  0.81152160362E+03  0.25500000920E-02 0. -1.
       -2   -1    0    0    0  501  0.00000000000E+00  0.00000000000E+00 -0.96296070211E+03  0.96296070212E+03  0.25500000920E-02 0.  1.
    10030    2    1    2    0    0  0.00000000000E+00  0.00000000000E+00 -0.15143909849E+03  0.17744823057E+04  0.17680083860E+04 0.  0.
        3    1    3    3  502    0 -0.71560878275E+02 -0.43412178464E+03  0.69382180125E+03  0.82156642171E+03  0.10100000352E+00 0. -1.
       -3    1    3    3    0  502  0.71560878275E+02  0.43412178464E+03 -0.84526089974E+03  0.95291588403E+03  0.10100000352E+00 0.  1.
</event>
<event>
 5   0  0.6539134E-05  0.1692715E+04  0.7818609E-02  0.8765530E-01
        1   -1    0    0  501    0  0.00000000000E+00  0.00000000000E+00  0.14599268184E+04  0.14599268184E+04  0.50400001928E-02 0.  1.
       -1   -1    0    0    0  501  0.00000000000E+00  0.00000000000E+00 -0.49065550388E+03  0.49065550391E+03  0.50400001928E-02 0. -1.
    10030    2    1    2    0    0  0.00000000000E+00  0.00000000000E+00  0.96927131451E+03  0.19505823223E+04  0.16927151311E+04 0.  0.
        2    1    3    3  502    0  0.39449946390E+03 -0.62394766998E+03  0.75885729831E+01  0.73823987182E+03  0.25500000920E-02 0. -1.
       -2    1    3    3    0  502 -0.39449946390E+03  0.62394766998E+03  0.96168274153E+03  0.12123424505E+04  0.25500000920E-02 0.  1.
</event>
<event>
 5   0  0.6834837E-05  0.1702048E+04  0.7818609E-02  0.8760197E-01
       -1   -1    0    0    0  501  0.00000000000E+00  0.00000000000E+00  0.69519145526E+03  0.69519145528E+03  0.50400001928E-02 0. -1.
        1   -1    0    0  501    0  0.00000000000E+00  0.00000000000E+00 -0.10417870520E+04  0.10417870520E+04  0.50400001928E-02 0.  1.
    10030    2    1    2    0    0  0.00000000000E+00  0.00000000000E+00 -0.34659559675E+03  0.17369785073E+04  0.17020475396E+04 0.  0.
        5    1    3    3  502    0  0.39745033750E+02  0.50041467912E+03  0.52799144293E+03  0.72855444037E+03  0.46999998093E+01 0. -1.
       -5    1    3    3    0  502 -0.39745033750E+02 -0.50041467912E+03 -0.87458703967E+03  0.10084240669E+04  0.46999998093E+01 0.  1.
</event>
<event>
 5   0  0.1269175E-04  0.1677018E+04  0.7818609E-02  0.8774581E-01
        2   -1    0    0  501    0  0.00000000000E+00  0.00000000000E+00  0.11764387082E+04  0.11764387082E+04  0.25500000920E-02 0.  1.
       -2   -1    0    0    0  501  0.00000000000E+00  0.00000000000E+00 -0.59764921827E+03  0.59764921827E+03  0.25500000920E-02 0. -1.
    10030    2    1    2    0    0  0.00000000000E+00  0.00000000000E+00  0.57878948995E+03  0.17740879265E+04  0.16770183950E+04 0.  0.
        2    1    3    3  502    0 -0.45250143687E+02  0.83648779110E+03  0.25069484353E+03  0.87441826647E+03  0.25500000920E-02 0. -1.
       -2    1    3    3    0  502  0.45250143687E+02 -0.83648779110E+03  0.32809464642E+03  0.89966966003E+03  0.25500000920E-02 0.  1.
</event>
<event>
 5   0  0.1255362E-04  0.1712611E+04  0.7818609E-02  0.8754205E-01
       -2   -1    0    0    0  501  0.00000000000E+00  0.00000000000E+00  0.13390062692E+04  0.13390062692E+04  0.25500000920E-02 0.  1.
        2   -1    0    0  501    0  0.00000000000E+00  0.00000000000E+00 -0.54761416723E+03  0.54761416724E+03  0.25500000920E-02 0. -1.
    10030    2    1    2    0    0  0.00000000000E+00  0.00000000000E+00  0.79139210195E+03  0.18866204364E+04  0.17126106423E+04 0.  0.
        1    1    3    3  502    0  0.26418490613E+03  0.24586304544E+03 -0.45974580168E+03  0.58447284277E+03  0.50400001928E-02 0. -1.
       -1    1    3    3    0  502 -0.26418490613E+03 -0.24586304544E+03  0.12511379036E+04  0.13021475937E+04  0.50400001928E-02 0.  1.
</event>
<event>
 5   0  0.6564887E-05  0.1695925E+04  0.7818609E-02  0.8763692E-01
       -1   -1    0    0    0  501  0.00000000000E+00  0.00000000000E+00  0.94117627672E+03  0.94117627674E+03  0.50400001928E-02 0.  1.
        1   -1    0    0  501    0  0.00000000000E+00  0.00000000000E+00 -0.76398054939E+03  0.76398054940E+03  0.50400001928E-02 0. -1.
    10030    2    1    2    0    0  0.00000000000E+00  0.00000000000E+00  0.17719572734E+03  0.17051568261E+04  0.16959249618E+04 0.  0.
        4    1    3    3  502    0 -0.24838279721E+03 -0.72205778162E+03  0.45935618370E+03  0.89110671098E+03  0.12699999809E+01 0.  1.
       -4    1    3    3    0  502  0.24838279721E+03  0.72205778162E+03 -0.28216045636E+03  0.81405011516E+03  0.12699999809E+01 0. -1.
</event>
<event>
 5   0  0.6615842E-05  0.1694589E+04  0.7818609E-02  0.8764457E-01
       -1   -1    0    0    0  501  0.00000000000E+00  0.00000000000E+00  0.31868443971E+03  0.31868443975E+03  0.50400001928E-02 0.  1.
        1   -1    0    0  501    0  0.00000000000E+00  0.00000000000E+00 -0.22527228393E+04  0.22527228393E+04  0.50400001928E-02 0. -1.
    10030    2    1    2    0    0  0.00000000000E+00  0.00000000000E+00 -0.19340383996E+04  0.25714072790E+04  0.16945887004E+04 0.  0.
        3    1    3    3  502    0  0.46969397122E+03  0.15131190330E+03 -0.20121698546E+04  0.20717951764E+04  0.10100000352E+00 0. -1.
       -3    1    3    3    0  502 -0.46969397122E+03 -0.15131190330E+03  0.78131455053E+02  0.49961210268E+03  0.10100000352E+00 0.  1.
</event>
<event>
 5   0  0.1269175E-04  0.1697971E+04  0.7818609E-02  0.8762522E-01
        2   -1    0    0  501    0  0.00000000000E+00  0.00000000000E+00  0.15135554296E+04  0.15135554296E+04  0.25500000920E-02 0.  1.
       -2   -1    0    0    0  501  0.00000000000E+00  0.00000000000E+00 -0.47621399545E+03  0.47621399545E+03  0.25500000920E-02 0. -1.
    10030    2    1    2    0    0  0.00000000000E+00  0.00000000000E+00  0.10373414342E+04  0.19897694251E+04  0.16979708813E+04 0.  0.
        2    1    3    3  502    0 -0.58483066091E+03  0.34918567352E+03 -0.75191741680E+02  0.68528193801E+03  0.25500000920E-02 0. -1.
       -2    1    3    3    0  502  0.58483066091E+03 -0.34918567352E+03  0.11125331758E+04  0.13044874871E+04  0.25500000920E-02 0.  1.
</event>
<event>
 5   0  0.6601906E-05  0.1695929E+04  0.7818609E-02  0.8763689E-01
       -1   -1    0    0    0  501  0.00000000000E+00  0.00000000000E+00  0.77415577172E+03  0.77415577174E+03  0.50400001928E-02 0.  1.
        1   -1    0    0  501    0  0.00000000000E+00  0.00000000000E+00 -0.92881052111E+03  0.92881052112E+03  0.50400001928E-02 0. -1.
    10030    2    1    2    0    0  0.00000000000E+00  0.00000000000E+00 -0.15465474938E+03  0.17029662929E+04  0.16959292742E+04 0.  0.
        1    1    3    3  502    0 -0.45052719253E+03 -0.55219580060E+03 -0.53874364462E+03  0.89338662854E+03  0.50400001928E-02 0. -1.
       -1    1    3    3    0  502  0.45052719253E+03  0.55219580060E+03  0.38408889523E+03  0.80957966432E+03  0.50400001928E-02 0.  1.
</event>
<event>
 5   0  0.6601906E-05  0.1699455E+04  0.7818609E-02  0.8761675E-01
        1   -1    0    0  501    0  0.00000000000E+00  0.00000000000E+00  0.68720920056E+03  0.68720920058E+03  0.50400001928E-02 0.  1.
       -1   -1    0    0    0  501  0.00000000000E+00  0.00000000000E+00 -0.10506793167E+04  0.10506793167E+04  0.50400001928E-02 0. -1.
    10030    2    1    2    0    0  0.00000000000E+00  0.00000000000E+00 -0.36347011615E+03  0.17378885173E+04  0.16994546105E+04 0.  0.
        1    1    3    3  502    0 -0.11957131269E+03 -0.83341166357E+03 -0.64404949490E+02  0.84440529210E+03  0.50400001928E-02 0.  1.
       -1    1    3    3    0  502  0.11957131269E+03  0.83341166357E+03 -0.29906516666E+03  0.89348322521E+03  0.50400001928E-02 0. -1.
</event>
<event>
 5   0  0.6539134E-05  0.1697659E+04  0.7818609E-02  0.8762701E-01
       -1   -1    0    0    0  501  0.00000000000E+00  0.00000000000E+00  0.71259640706E+03  0.71259640708E+03  0.50400001928E-02 0.  1.
        1   -1    0    0  501    0  0.00000000000E+00  0.00000000000E+00 -0.10111072111E+04  0.10111072111E+04  0.50400001928E-02 0. -1.
    10030    2    1    2    0    0  0.00000000000E+00  0.00000000000E+00 -0.29851080405E+03  0.17237036182E+04  0.16976588183E+04 0.  0.
        2    1    3    3  502    0  0.14984405855E+03  0.39846834503E+00  0.69906111516E+03  0.71494044745E+03  0.25500000920E-02 0.  1.
       -2    1    3    3    0  502 -0.14984405855E+03 -0.39846834503E+00 -0.99757191921E+03  0.10087631708E+04  0.25500000920E-02 0. -1.
</event>
<event>
 5   0  0.1285639E-04  0.1718806E+04  0.7818609E-02  0.8750711E-01
       -2   -1    0    0    0  501  0.00000000000E+00  0.00000000000E+00  0.39461703450E+03  0.39461703451E+03  0.25500000920E-02 0. -1.
        2   -1    0    0  501    0  0.00000000000E+00  0.00000000000E+00 -0.18716212986E+04  0.18716212986E+04  0.25500000920E-02 0.  1.
    10030    2    1    2    0    0  0.00000000000E+00  0.00000000000E+00 -0.14770042641E+04  0.22662383331E+04  0.17188061514E+04 0.  0.
        4    1    3    3  502    0 -0.49926270994E+03  0.25016887396E+03 -0.15997980259E+04  0.16944624680E+04  0.12699999809E+01 0.  1.
       -4    1    3    3    0  502  0.49926270994E+03 -0.25016887396E+03  0.12279376180E+03  0.57177586507E+03  0.12699999809E+01 0. -1.
</event>
<event>
 5   0  0.4720875E-05  0.1700658E+04  0.7818609E-02  0.8760989E-01
        4   -1    0    0  501    0  0.00000000000E+00  0.00000000000E+00  0.71971862968E+03  0.71971975019E+03  0.12699999809E+01 0. -1.
       -4   -1    0    0    0  501  0.00000000000E+00  0.00000000000E+00 -0.10046390233E+04  0.10046398260E+04  0.12699999809E+01 0.  1.
    10030    2    1    2    0    0  0.00000000000E+00  0.00000000000E+00 -0.28492039362E+03  0.17243595762E+04  0.17006576132E+04 0.  0.
        3    1    3    3  502    0  0.24070230753E+02 -0.61577500017E+03 -0.73654491376E+03  0.96034194276E+03  0.10100000352E+00 0.  1.
       -3    1    3    3    0  502 -0.24070230753E+02  0.61577500017E+03  0.45162452014E+03  0.76401763346E+03  0.10100000352E+00 0. -1.
</event>
<event>
 5   0  0.1285639E-04  0.1694583E+04  0.7818609E-02  0.8764460E-01
       -2   -1    0    0    0  501  0.00000000000E+00  0.00000000000E+00  0.34401172647E+03  0.34401172648E+03  0.25500000920E-02 0.  1.
        2   -1    0    0  501    0  0.00000000000E+00  0.00000000000E+00 -0.20868552827E+04  0.20868552827E+04  0.25500000920E-02 0. -1.
    10030    2    1    2    0    0  0.00000000000E+00  0.00000000000E+00 -0.17428435562E+04  0.24308670091E+04  0.16945827672E+04 0.  0.
        4    1    3    3  502    0 -0.11146255958E+03 -0.78220173884E+03 -0.43246315803E+03  0.90071608089E+03  0.12699999809E+01 0.  1.
       -4    1    3    3    0  502  0.11146255958E+03  0.78220173884E+03 -0.13103803982E+04  0.15301509283E+04  0.12699999809E+01 0. -1.
</event>
<event>
 5   0  0.1255362E-04  0.1726030E+04  0.7818609E-02  0.8746656E-01
       -2   -1    0    0    0  501  0.00000000000E+00  0.00000000000E+00  0.70960087348E+03  0.70960087349E+03  0.25500000920E-02 0. -1.
        2   -1    0    0  501    0  0.00000000000E+00  0.00000000000E+00 -0.10495967822E+04  0.10495967822E+04  0.25500000920E-02 0.  1.
    10030    2    1    2    0    0  0.00000000000E+00  0.00000000000E+00 -0.33999590869E+03  0.17591976557E+04  0.17260298879E+04 0.  0.
        1    1    3    3  502    0  0.34628992090E+02  0.11024915773E+03  0.70167967782E+03  0.71113178396E+03  0.50400001928E-02 0. -1.
       -1    1    3    3    0  502 -0.34628992090E+02 -0.11024915773E+03 -0.10416755865E+04  0.10480658717E+04  0.50400001928E-02 0.  1.
</event>
<event>
 5   0  0.4720875E-05  0.1700641E+04  0.7818609E-02  0.8760999E-01
       -4   -1    0    0    0  501  0.00000000000E+00  0.00000000000E+00  0.98507543340E+03  0.98507625206E+03  0.12699999809E+01 0.  1.
        4   -1    0    0  501    0  0.00000000000E+00  0.00000000000E+00 -0.73399799018E+03  0.73399908889E+03  0.12699999809E+01 0. -1.
    10030    2    1    2    0    0  0.00000000000E+00  0.00000000000E+00  0.25107744322E+03  0.17190753410E+04  0.17006410983E+04 0.  0.
        4    1    3    3  502    0  0.70643018452E+03  0.16526283389E+03  0.57384124934E+03  0.92501394704E+03  0.12699999809E+01 0.  1.
       -4    1    3    3    0  502 -0.70643018452E+03 -0.16526283389E+03 -0.32276380612E+03  0.79406139392E+03  0.12699999809E+01 0. -1.
</event>
<event>
 5   0  0.1393870E-04  0.1698996E+04  0.7818609E-02  0.8761937E-01
       -2   -1    0    0    0  501  0.00000000000E+00  0.00000000000E+00  0.82695430121E+03  0.82695430122E+03  0.25500000920E-02 0. -1.
        2   -1    0    0  501    0  0.00000000000E+00  0.00000000000E+00 -0.87265654929E+03  0.87265654929E+03  0.25500000920E-02 0.  1.
    10030    2    1    2    0    0  0.00000000000E+00  0.00000000000E+00 -0.45702248073E+02  0.16996108505E+04  0.16989962765E+04 0.  0.
        3    1    3    3  502    0 -0.39226336692E+03 -0.13191684694E+03  0.71928950722E+03  0.82984938930E+03  0.10100000352E+00 0. -1.
       -3    1    3    3    0  502  0.39226336692E+03  0.13191684694E+03 -0.76499175529E+03  0.86976146121E+03  0.10100000352E+00 0.  1.
</event>
<event>
 5   0  0.1285639E-04  0.1696336E+04  0.7818609E-02  0.8763457E-01
        2   -1    0    0  501    0  0.00000000000E+00  0.00000000000E+00  0.96224777588E+03  0.96224777588E+03  0.25500000920E-02 0. -1.
       -2   -1    0    0    0  501  0.00000000000E+00  0.00000000000E+00 -0.74761327517E+03  0.74761327517E+03  0.25500000920E-02 0.  1.
    10030    2    1    2    0    0  0.00000000000E+00  0.00000000000E+00  0.21463450071E+03  0.17098610511E+04  0.16963363007E+04 0.  0.
        4    1    3    3  502    0 -0.11641368783E+03  0.25989297029E+03 -0.69798378367E+03  0.75384313877E+03  0.12699999809E+01 0.  1.
       -4    1    3    3    0  502  0.11641368783E+03 -0.25989297029E+03  0.91261828438E+03  0.95601791228E+03  0.12699999809E+01 0. -1.
</event>
<event>
 5   0  0.6615842E-05  0.1698527E+04  0.7818609E-02  0.8762205E-01
        1   -1    0    0  501    0  0.00000000000E+00  0.00000000000E+00  0.18072489921E+04  0.18072489921E+04  0.50400001928E-02 0.  1.
       -1   -1    0    0    0  501  0.00000000000E+00  0.00000000000E+00 -0.39908630637E+03  0.39908630640E+03  0.50400001928E-02 0. -1.
    10030    2    1    2    0    0  0.00000000000E+00  0.00000000000E+00  0.14081626857E+04  0.22063352985E+04  0.16985268028E+04 0.  0.
        3    1    3    3  502    0  0.60385403526E+03 -0.49283073056E+03  0.26602504720E+03  0.82358433740E+03  0.10100000352E+00 0. -1.
       -3    1    3    3    0  502 -0.60385403526E+03  0.49283073056E+03  0.11421376385E+04  0.13827509611E+04  0.10100000352E+00 0.  1.
</event>
<event>
 5   0  0.6539134E-05  0.1697848E+04  0.7818609E-02  0.8762593E-01
       -1   -1    0    0    0  501  0.00000000000E+00  0.00000000000E+00  0.53074336231E+03  0.53074336233E+03  0.50400001928E-02 0.  1.
        1   -1    0    0  501    0  0.00000000000E+00  0.00000000000E+00 -0.13578534218E+04  0.13578534218E+04  0.50400001928E-02 0. -1.
    10030    2    1    2    0    0  0.00000000000E+00  0.00000000000E+00 -0.82711005950E+03  0.18885967842E+04  0.16978476853E+04 0.  0.
        2    1    3    3  502    0 -0.31921084976E+03 -0.27157379742E+03  0.40764366663E+03  0.58465481525E+03  0.25500000920E-02 0.  1.
       -2    1    3    3    0  502  0.31921084976E+03  0.27157379742E+03 -0.12347537261E+04  0.13039419689E+04  0.25500000920E-02 0. -1.
</event>
<event>
 5   0  0.6834837E-05  0.1703271E+04  0.7818609E-02  0.8759501E-01
       -1   -1    0    0    0  501  0.00000000000E+00  0.00000000000E+00  0.54558021322E+03  0.54558021324E+03  0.50400001928E-02 0. -1.
        1   -1    0    0  501    0  0.00000000000E+00  0.00000000000E+00 -0.13293786592E+04  0.13293786592E+04  0.50400001928E-02 0.  1.
    10030    2    1    2    0    0  0.00000000000E+00  0.00000000000E+00 -0.78379844599E+03  0.18749588725E+04  0.17032706096E+04 0.  0.
        5    1    3    3  502    0 -0.67246119686E+03  0.34550738996E+03 -0.82343662527E+03  0.11178771773E+04  0.46999998093E+01 0. -1.
       -5    1    3    3    0  502  0.67246119686E+03 -0.34550738996E+03  0.39638179286E+02  0.75708169510E+03  0.46999998093E+01 0.  1.
</event>
<event>
 5   0  0.1285639E-04  0.1695236E+04  0.7818609E-02  0.8764086E-01
        2   -1    0    0  501    0  0.00000000000E+00  0.00000000000E+00  0.16978562076E+04  0.16978562076E+04  0.25500000920E-02 0. -1.
       -2   -1    0    0    0  501  0.00000000000E+00  0.00000000000E+00 -0.42315481133E+03  0.42315481134E+03  0.25500000920E-02 0.  1.
    10030    2    1    2    0    0  0.00000000000E+00  0.00000000000E+00  0.12747013962E+04  0.21210110189E+04  0.16952357042E+04 0.  0.
        4    1    3    3  502    0 -0.26212657954E+03 -0.40583776674E+03  0.15087185043E+04  0.15841867866E+04  0.12699999809E+01 0. -1.
       -4    1    3    3    0  502  0.26212657954E+03  0.40583776674E+03 -0.23401710810E+03  0.53682423232E+03  0.12699999809E+01 0.  1.
</event>
<event>
 5   0  0.6601906E-05  0.1692083E+04  0.7818609E-02  0.8765893E-01
        1   -1    0    0  501    0  0.00000000000E+00  0.00000000000E+00  0.56744759769E+03  0.56744759771E+03  0.50400001928E-02 0.  1.
       -1   -1    0    0    0  501  0.00000000000E+00  0.00000000000E+00 -0.12614138532E+04  0.12614138532E+04  0.50400001928E-02 0. -1.
    10030    2    1    2    0    0  0.00000000000E+00  0.00000000000E+00 -0.69396625546E+03  0.18288614509E+04  0.16920830484E+04 0.  0.
        1    1    3    3  502    0 -0.56979429107E+03 -0.52380624998E+03  0.22320327123E+02  0.77429756468E+03  0.50400001928E-02 0.  1.
       -1    1    3    3    0  502  0.56979429107E+03  0.52380624998E+03 -0.71628658259E+03  0.10545638862E+04  0.50400001928E-02 0. -1.
</event>
<event>
 5   0  0.6834837E-05  0.1696415E+04  0.7818609E-02  0.8763412E-01
       -1   -1    0    0    0  501  0.00000000000E+00  0.00000000000E+00  0.14042980195E+04  0.14042980195E+04  0.50400001928E-02 0. -1.
        1   -1    0    0  501    0  0.00000000000E+00  0.00000000000E+00 -0.51232422164E+03  0.51232422167E+03  0.50400001928E-02 0.  1.
    10030    2    1    2    0    0  0.00000000000E+00  0.00000000000E+00  0.89197379782E+03  0.19166222411E+04  0.16964149136E+04 0.  0.
        5    1    3    3  502    0 -0.35670573638E+03 -0.14070030421E+03  0.13007653937E+04  0.13561151343E+04  0.46999998093E+01 0. -1.
       -5    1    3    3    0  502  0.35670573638E+03  0.14070030421E+03 -0.40879159589E+03  0.56050710686E+03  0.46999998093E+01 0.  1.
</event>
<event>
 5   0  0.6601906E-05  0.1706587E+04  0.7818609E-02  0.8757617E-01
       -1   -1    0    0    0  501  0.00000000000E+00  0.00000000000E+00  0.95878892867E+03  0.95878892868E+03  0.50400001928E-02 0.  1.
        1   -1    0    0  501    0  0.00000000000E+00  0.00000000000E+00 -0.75940560002E+03  0.75940560003E+03  0.50400001928E-02 0. -1.
    10030    2    1    2    0    0  0.00000000000E+00  0.00000000000E+00  0.19938332865E+03  0.17181945287E+04  0.17065868647E+04 0.  0.
        1    1    3    3  502    0  0.12464028869E+03  0.10095427684E+03  0.94347479904E+03  0.95701184111E+03  0.50400001928E-02 0.  1.
       -1    1    3    3    0  502 -0.12464028869E+03 -0.10095427684E+03 -0.74409147039E+03  0.76118268760E+03  0.50400001928E-02 0. -1.
</event>
<event>
 5   0  0.6539134E-05  0.1695808E+04  0.7818609E-02  0.8763759E-01
       -1   -1    0    0    0  501  0.00000000000E+00  0.00000000000E+00  0.69634585647E+03  0.69634585649E+03  0.50400001928E-02 0. -1.
        1   -1    0    0  501    0  0.00000000000E+00  0.00000000000E+00 -0.10324479536E+04  0.10324479536E+04  0.50400001928E-02 0.  1.
    10030    2    1    2    0    0  0.00000000000E+00  0.00000000000E+00 -0.33610209715E+03  0.17287938101E+04  0.16958076006E+04 0.  0.
        2    1    3    3  502    0 -0.59483780880E+03  0.87253041698E+02 -0.77759083492E+03  0.98290010613E+03  0.25500000920E-02 0.  1.
       -2    1    3    3    0  502  0.59483780880E+03 -0.87253041698E+02  0.44148873778E+03  0.74589370399E+03  0.25500000920E-02 0. -1.
</event>
<event>
 5   0  0.1333546E-04  0.1700274E+04  0.7818609E-02  0.8761208E-01
       -2   -1    0    0    0  501  0.00000000000E+00  0.00000000000E+00  0.84811064671E+03  0.84811064672E+03  0.25500000920E-02 0. -1.
        2   -1    0    0  501    0  0.00000000000E+00  0.00000000000E+00 -0.85216850059E+03  0.85216850060E+03  0.25500000920E-02 0.  1.
    10030    2    1    2    0    0  0.00000000000E+00  0.00000000000E+00 -0.40578538773E+01  0.17002791473E+04  0.17002743051E+04 0.  0.
        5    1    3    3  502    0 -0.52939918109E+03 -0.61679585824E+03  0.24699078648E+03  0.84954526794E+03  0.46999998093E+01 0.  1.
       -5    1    3    3    0  502  0.52939918109E+03  0.61679585824E+03 -0.25104864036E+03  0.85073387937E+03  0.46999998093E+01 0. -1.
</event>
<event>
 5   0  0.1285639E-04  0.1692946E+04  0.7818609E-02  0.8765398E-01
       -2   -1    0    0    0  501  0.00000000000E+00  0.00000000000E+00  0.38200077672E+03  0.38200077673E+03  0.25500000920E-02 0.  1.
        2   -1    0    0  501    0  0.00000000000E+00  0.00000000000E+00 -0.18756935108E+04  0.18756935108E+04  0.25500000920E-02 0. -1.
    10030    2    1    2    0    0  0.00000000000E+00  0.00000000000E+00 -0.14936927341E+04  0.22576942876E+04  0.16929458090E+04 0.  0.
        4    1    3    3  502    0 -0.11711839085E+03  0.22235911549E+03 -0.18247911411E+04  0.18420164535E+04  0.12699999809E+01 0. -1.
       -4    1    3    3    0  502  0.11711839085E+03 -0.22235911549E+03  0.33109840695E+03  0.41567783402E+03  0.12699999809E+01 0.  1.
</event>
<event>
 5   0  0.6615842E-05  0.1695841E+04  0.7818609E-02  0.8763740E-01
        1   -1    0    0  501    0  0.00000000000E+00  0.00000000000E+00  0.18818224822E+04  0.18818224822E+04  0.50400001928E-02 0.  1.
       -1   -1    0    0    0  501  0.00000000000E+00  0.00000000000E+00 -0.38205990666E+03  0.38205990669E+03  0.50400001928E-02 0. -1.
    10030    2    1    2    0    0  0.00000000000E+00  0.00000000000E+00  0.14997625755E+04  0.22638823889E+04  0.16958407023E+04 0.  0.
        3    1    3    3  502    0 -0.84776596427E+03 -0.84494899478E+01  0.76830122870E+03  0.11441439211E+04  0.10100000352E+00 0.  1.
       -3    1    3    3    0  502  0.84776596427E+03  0.84494899478E+01  0.73146134680E+03  0.11197384677E+04  0.10100000352E+00 0. -1.
</event>
<event>
 5   0  0.6539134E-05  0.1697349E+04  0.7818609E-02  0.8762878E-01
        1   -1    0    0  501    0  0.00000000000E+00  0.00000000000E+00  0.76266948920E+03  0.76266948921E+03  0.50400001928E-02 0. -1.
       -1   -1    0    0    0  501  0.00000000000E+00  0.00000000000E+00 -0.94437792906E+03  0.94437792907E+03  0.50400001928E-02 0.  1.
    10030    2    1    2    0    0  0.00000000000E+00  0.00000000000E+00 -0.18170843986E+03  0.17070474183E+04  0.16973487948E+04 0.  0.
        2    1    3    3  502    0 -0.20295495373E+03  0.65700742360E+03 -0.59108827256E+03  0.90677164373E+03  0.25500000920E-02 0.  1.
       -2    1    3    3    0  502  0.20295495373E+03 -0.65700742360E+03  0.40937983269E+03  0.80027577455E+03  0.25500000920E-02 0. -1.
</event>
<event>
 5   0  0.1285639E-04  0.1699760E+04  0.7818609E-02  0.8761501E-01
       -2   -1    0    0    0  501  0.00000000000E+00  0.00000000000E+00  0.56780330921E+03  0.56780330921E+03  0.25500000920E-02 0.  1.
        2   -1    0    0  501    0  0.00000000000E+00  0.00000000000E+00 -0.12720882527E+04  0.12720882527E+04  0.25500000920E-02 0. -1.
    10030    2    1    2    0    0  0.00000000000E+00  0.00000000000E+00 -0.70428494349E+03  0.18398915619E+04  0.16997598883E+04 0.  0.
        4    1    3    3  502    0 -0.84100754993E+03 -0.80950057387E+02 -0.45163117808E+03  0.95802867637E+03  0.12699999809E+01 0. -1.
       -4    1    3    3    0  502  0.84100754993E+03  0.80950057387E+02 -0.25265376541E+03  0.88186288554E+03  0.12699999809E+01 0.  1.
</event>
<event>
 5   0  0.6601906E-05  0.1696207E+04  0.7818609E-02  0.8763531E-01
       -1   -1    0    0    0  501  0.00000000000E+00  0.00000000000E+00  0.77181696096E+03  0.77181696097E+03  0.50400001928E-02 0. -1.
        1   -1    0    0  501    0  0.00000000000E+00  0.00000000000E+00 -0.93192978490E+03  0.93192978491E+03  0.50400001928E-02 0.  1.
    10030    2    1    2    0    0  0.00000000000E+00  0.00000000000E+00 -0.16011282394E+03  0.17037467459E+04  0.16962066082E+04 0.  0.
        1    1    3    3  502    0 -0.35216036377E+03 -0.72288332002E+03  0.19077526720E+03  0.82642145348E+03  0.50400001928E-02 0. -1.
       -1    1    3    3    0  502  0.35216036377E+03  0.72288332002E+03 -0.35088809114E+03  0.87732529241E+03  0.50400001928E-02 0.  1.
</event>
<event>
 5   0  0.1255362E-04  0.1700278E+04  0.7818609E-02  0.8761206E-01
       -2   -1    0    0    0  501  0.00000000000E+00  0.00000000000E+00  0.96423206637E+03  0.96423206638E+03  0.25500000920E-02 0. -1.
        2   -1    0    0  501    0  0.00000000000E+00  0.00000000000E+00 -0.74954613379E+03  0.74954613379E+03  0.25500000920E-02 0.  1.
    10030    2    1    2    0    0  0.00000000000E+00  0.00000000000E+00  0.21468593258E+03  0.17137782002E+04  0.17002781154E+04 0.  0.
        1    1    3    3  502    0  0.28617197546E+03  0.19061913093E+03 -0.67633040165E+03  0.75871790861E+03  0.50400001928E-02 0.  1.
       -1    1    3    3    0  502 -0.28617197546E+03 -0.19061913093E+03  0.89101633424E+03  0.95506029156E+03  0.50400001928E-02 0. -1.
</event>
<event>
 5   0  0.6601906E-05  0.1723984E+04  0.7818609E-02  0.8747802E-01
        1   -1    0    0  501    0  0.00000000000E+00  0.00000000000E+00  0.10079529104E+04  0.10079529104E+04  0.50400001928E-02 0. -1.
       -1   -1    0    0    0  501  0.00000000000E+00  0.00000000000E+00 -0.73716797298E+03  0.73716797300E+03  0.50400001928E-02 0.  1.
    10030    2    1    2    0    0  0.00000000000E+00  0.00000000000E+00  0.27078493745E+03  0.17451208834E+04  0.17239844592E+04 0.  0.
        1    1    3    3  502    0 -0.78435770691E+03  0.11452877372E+03 -0.20742877634E+03  0.81936594369E+03  0.50400001928E-02 0. -1.
       -1    1    3    3    0  502  0.78435770691E+03 -0.11452877372E+03  0.47821371379E+03  0.92575493975E+03  0.50400001928E-02 0.  1.
</event>
<event>
 5   0  0.6601906E-05  0.1695228E+04  0.7818609E-02  0.8764090E-01
       -1   -1    0    0    0  501  0.00000000000E+00  0.00000000000E+00  0.73011495381E+03  0.73011495383E+03  0.50400001928E-02 0. -1.
        1   -1    0    0  501    0  0.00000000000E+00  0.00000000000E+00 -0.98402284510E+03  0.98402284511E+03  0.50400001928E-02 0.  1.
    10030    2    1    2    0    0  0.00000000000E+00  0.00000000000E+00 -0.25390789129E+03  0.17141377989E+04  0.16952283553E+04 0.  0.
        1    1    3    3  502    0 -0.15273252119E+03  0.78750193597E+03  0.14989430952E+03  0.81606055304E+03  0.50400001928E-02 0. -1.
       -1    1    3    3    0  502  0.15273252119E+03 -0.78750193597E+03 -0.40380220081E+03  0.89807724589E+03  0.50400001928E-02 0.  1.
</event>
<event>
 5   0  0.1333546E-04  0.1688218E+04  0.7818609E-02  0.8768112E-01
        2   -1    0    0  501    0  0.00000000000E+00  0.00000000000E+00  0.67096184036E+03  0.67096184037E+03  0.25500000920E-02 0. -1.
       -2   -1    0    0    0  501  0.00000000000E+00  0.00000000000E+00 -0.10619387697E+04  0.10619387697E+04  0.25500000920E-02 0.  1.
    10030    2    1    2    0    0  0.00000000000E+00  0.00000000000E+00 -0.39097692935E+03  0.17329006101E+04  0.16882184590E+04 0.  0.
        5    1    3    3  502    0  0.36846600821E+03  0.50347523633E+03  0.38810457581E+03  0.73478007905E+03  0.46999998093E+01 0. -1.
       -5    1    3    3    0  502 -0.36846600821E+03 -0.50347523633E+03 -0.77908150516E+03  0.99812053104E+03  0.46999998093E+01 0.  1.
</event>
<event>
 5   0  0.6834837E-05  0.1697041E+04  0.7818609E-02  0.8763054E-01
        1   -1    0    0  501    0  0.00000000000E+00  0.00000000000E+00  0.19563380291E+04  0.19563380291E+04  0.50400001928E-02 0. -1.
       -1   -1    0    0    0  501  0.00000000000E+00  0.00000000000E+00 -0.36802777450E+03  0.36802777453E+03  0.50400001928E-02 0.  1.
    10030    2    1    2    0    0  0.00000000000E+00  0.00000000000E+00  0.15883102546E+04  0.23243658036E+04  0.16970406372E+04 0.  0.
        5    1    3    3  502    0 -0.77813809302E+03  0.12929888457E+03  0.12223733756E+04  0.14547975298E+04  0.46999998093E+01 0. -1.
       -5    1    3    3    0  502  0.77813809302E+03 -0.12929888457E+03  0.36593687892E+03  0.86956827375E+03  0.46999998093E+01 0.  1.
</event>
<event>
 5   0  0.1393870E-04  0.1698652E+04  0.7818609E-02  0.8762133E-01
       -2   -1    0    0    0  501  0.00000000000E+00  0.00000000000E+00  0.84654523765E+03  0.84654523766E+03  0.25500000920E-02 0.  1.
        2   -1    0    0  501    0  0.00000000000E+00  0.00000000000E+00 -0.85211599550E+03  0.85211599550E+03  0.25500000920E-02 0. -1.
    10030    2    1    2    0    0  0.00000000000E+00  0.00000000000E+00 -0.55707578449E+01  0.16986612332E+04  0.16986520985E+04 0.  0.
        3    1    3    3  502    0  0.64415882932E+02 -0.54995342967E+03  0.64123403674E+03  0.84721855554E+03  0.10100000352E+00 0.  1.
       -3    1    3    3    0  502 -0.64415882932E+02  0.54995342967E+03 -0.64680479459E+03  0.85144267762E+03  0.10100000352E+00 0. -1.
</event>
<event>
 5   0  0.1285639E-04  0.1703634E+04  0.7818609E-02  0.8759294E-01
       -2   -1    0    0    0  501  0.00000000000E+00  0.00000000000E+00  0.96058532396E+03  0.96058532396E+03  0.25500000920E-02 0.  1.
        2   -1    0    0  501    0  0.00000000000E+00  0.00000000000E+00 -0.75536499705E+03  0.75536499706E+03  0.25500000920E-02 0. -1.
    10030    2    1    2    0    0  0.00000000000E+00  0.00000000000E+00  0.20522032690E+03  0.17159503210E+04  0.17036343861E+04 0.  0.
        4    1    3    3  502    0  0.20201632831E+02 -0.67877556915E+02 -0.75239363371E+03  0.75572035942E+03  0.12699999809E+01 0. -1.
       -4    1    3    3    0  502 -0.20201632831E+02  0.67877556915E+02  0.95761396061E+03  0.96022996160E+03  0.12699999809E+01 0.  1.
</event>
<event>
 5   0  0.1393870E-04  0.1696956E+04  0.7818609E-02  0.8763102E-01
       -2   -1    0    0    0  501  0.00000000000E+00  0.00000000000E+00  0.14127398582E+04  0.14127398582E+04  0.25500000920E-02 0. -1.
        2   -1    0    0  501    0  0.00000000000E+00  0.00000000000E+00 -0.50958782498E+03  0.50958782499E+03  0.25500000920E-02 0.  1.
    10030    2    1    2    0    0  0.00000000000E+00  0.00000000000E+00  0.90315203321E+03  0.19223276832E+04  0.16969561357E+04 0.  0.
        3    1    3    3  502    0  0.61676877609E+03 -0.49043903309E+03  0.95180362195E+02  0.79372128603E+03  0.10100000352E+00 0.  1.
       -3    1    3    3    0  502 -0.61676877609E+03  0.49043903309E+03  0.80797167102E+03  0.11286063972E+04  0.10100000352E+00 0. -1.
</event>
<event>
 5   0  0.1255362E-04  0.1685885E+04  0.7818609E-02  0.8769456E-01
        2   -1    0    0  501    0  0.00000000000E+00  0.00000000000E+00  0.43251215125E+03  0.43251215126E+03  0.25500000920E-02 0.  1.
       -2   -1    0    0    0  501  0.00000000000E+00  0.00000000000E+00 -0.16428482778E+04  0.16428482778E+04  0.25500000920E-02 0. -1.
    10030    2    1    2    0    0  0.00000000000E+00  0.00000000000E+00 -0.12103361266E+04  0.20753604291E+04  0.16858847444E+04 0.  0.
        1    1    3    3  502    0  0.53696510568E+03  0.63896163913E+03 -0.45978060589E+03  0.95289123544E+03  0.50400001928E-02 0.  1.
       -1    1    3    3    0  502 -0.53696510568E+03 -0.63896163913E+03 -0.75055552068E+03  0.11224691936E+04  0.50400001928E-02 0. -1.
</event>
<event>
 5   0  0.6539134E-05  0.1701596E+04  0.7818609E-02  0.8760454E-01
        1   -1    0    0  501    0  0.00000000000E+00  0.00000000000E+00  0.54011795500E+03  0.54011795502E+03  0.50400001928E-02 0.  1.
       -1   -1    0    0    0  501  0.00000000000E+00  0.00000000000E+00 -0.13401842255E+04  0.13401842255E+04  0.50400001928E-02 0. -1.
    10030    2    1    2    0    0  0.00000000000E+00  0.00000000000E+00 -0.80006627046E+03  0.18803021805E+04  0.17015963836E+04 0.  0.
        2    1    3    3  502    0  0.57815299704E+03 -0.22158272889E+03  0.24477161974E+03  0.66578745825E+03  0.25500000920E-02 0.  1.
       -2    1    3    3    0  502 -0.57815299704E+03  0.22158272889E+03 -0.10448378902E+04  0.12145147222E+04  0.25500000920E-02 0. -1.
</event>
<event>
 5   0  0.6564887E-05  0.1699685E+04  0.7818609E-02  0.8761544E-01
        1   -1    0    0  501    0  0.00000000000E+00  0.00000000000E+00  0.10337175525E+04  0.10337175525E+04  0.50400001928E-02 0.  1.
       -1   -1    0    0    0  501  0.00000000000E+00  0.00000000000E+00 -0.69867434180E+03  0.69867434182E+03  0.50400001928E-02 0. -1.
    10030    2    1    2    0    0  0.00000000000E+00  0.00000000000E+00  0.33504321073E+03  0.17323918944E+04  0.16996845950E+04 0.  0.
        4    1    3    3  502    0  0.69689935718E+02 -0.48392709342E+03 -0.54097204796E+03  0.72917383967E+03  0.12699999809E+01 0. -1.
       -4    1    3    3    0  502 -0.69689935718E+02  0.48392709342E+03  0.87601525869E+03  0.10032180547E+04  0.12699999809E+01 0.  1.
</event>
<event>
 5   0  0.1333546E-04  0.1707149E+04  0.7818609E-02  0.8757297E-01
        2   -1    0    0  501    0  0.00000000000E+00  0.00000000000E+00  0.68049929242E+03  0.68049929243E+03  0.25500000920E-02 0.  1.
       -2   -1    0    0    0  501  0.00000000000E+00  0.00000000000E+00 -0.10706691819E+04  0.10706691819E+04  0.25500000920E-02 0. -1.
    10030    2    1    2    0    0  0.00000000000E+00  0.00000000000E+00 -0.39016988949E+03  0.17511684743E+04  0.17071492269E+04 0.  0.
        5    1    3    3  502    0  0.47066238905E+03  0.70921015581E+02 -0.92188448266E+03  0.10375191392E+04  0.46999998093E+01 0. -1.
       -5    1    3    3    0  502 -0.47066238905E+03 -0.70921015581E+02  0.53171459317E+03  0.71364933511E+03  0.46999998093E+01 0.  1.
</event>
<event>
 5   0  0.6601906E-05  0.1695133E+04  0.7818609E-02  0.8764145E-01
        1   -1    0    0  501    0  0.00000000000E+00  0.00000000000E+00  0.87073331142E+03  0.87073331143E+03  0.50400001928E-02 0. -1.
       -1   -1    0    0    0  501  0.00000000000E+00  0.00000000000E+00 -0.82501558442E+03  0.82501558443E+03  0.50400001928E-02 0.  1.
    10030    2    1    2    0    0  0.00000000000E+00  0.00000000000E+00  0.45717727001E+02  0.16957488959E+04  0.16951325043E+04 0.  0.
        1    1    3    3  502    0  0.67190802308E+03  0.91681001015E+01  0.53959689097E+03  0.86180580778E+03  0.50400001928E-02 0. -1.
       -1    1    3    3    0  502 -0.67190802308E+03 -0.91681001015E+01 -0.49387916397E+03  0.83394308809E+03  0.50400001928E-02 0.  1.
</event>
<event>
 5   0  0.6564887E-05  0.1687246E+04  0.7818609E-02  0.8768672E-01
        1   -1    0    0  501    0  0.00000000000E+00  0.00000000000E+00  0.93145013905E+03  0.93145013906E+03  0.50400001928E-02 0. -1.
       -1   -1    0    0    0  501  0.00000000000E+00  0.00000000000E+00 -0.76407740990E+03  0.76407740992E+03  0.50400001928E-02 0.  1.
    10030    2    1    2    0    0  0.00000000000E+00  0.00000000000E+00  0.16737272914E+03  0.16955275490E+04  0.16872462887E+04 0.  0.
        4    1    3    3  502    0  0.72381206330E+03 -0.43325226788E+03  0.93057704373E+02  0.84868885926E+03  0.12699999809E+01 0. -1.
       -4    1    3    3    0  502 -0.72381206330E+03  0.43325226788E+03  0.74315024769E+02  0.84683868972E+03  0.12699999809E+01 0.  1.
</event>
<event>
 5   0  0.6834837E-05  0.1704143E+04  0.7818609E-02  0.8759005E-01
        1   -1    0    0  501    0  0.00000000000E+00  0.00000000000E+00  0.18482116306E+04  0.18482116307E+04  0.50400001928E-02 0.  1.
       -1   -1    0    0    0  501  0.00000000000E+00  0.00000000000E+00 -0.39282610231E+03  0.39282610234E+03  0.50400001928E-02 0. -1.
    10030    2    1    2    0    0  0.00000000000E+00  0.00000000000E+00  0.14553855283E+04  0.22410377330E+04  0.17041429179E+04 0.  0.
        5    1    3    3  502    0 -0.34124105973E+03 -0.29427379048E+03 -0.22330144208E+03  0.50291962444E+03  0.46999998093E+01 0. -1.
       -5    1    3    3    0  502  0.34124105973E+03  0.29427379048E+03  0.16786869704E+04  0.17381181086E+04  0.46999998093E+01 0.  1.
</event>
<event>
 5   0  0.1285639E-04  0.1696674E+04  0.7818609E-02  0.8763263E-01
       -2   -1    0    0    0  501  0.00000000000E+00  0.00000000000E+00  0.35815105368E+03  0.35815105369E+03  0.25500000920E-02 0.  1.
        2   -1    0    0  501    0  0.00000000000E+00  0.00000000000E+00 -0.20094199845E+04  0.20094199845E+04  0.25500000920E-02 0. -1.
    10030    2    1    2    0    0  0.00000000000E+00  0.00000000000E+00 -0.16512689308E+04  0.23675710382E+04  0.16966742584E+04 0.  0.
        4    1    3    3  502    0  0.52810441575E+03  0.16298124300E+03  0.72452857834E+02  0.55741204598E+03  0.12699999809E+01 0.  1.
       -4    1    3    3    0  502 -0.52810441575E+03 -0.16298124300E+03 -0.17237217887E+04  0.18101589922E+04  0.12699999809E+01 0. -1.
</event>
<event>
 5   0  0.6601906E-05  0.1697745E+04  0.7818609E-02  0.8762651E-01
       -1   -1    0    0    0  501  0.00000000000E+00  0.00000000000E+00  0.59933600813E+03  0.59933600816E+03  0.50400001928E-02 0. -1.
        1   -1    0    0  501    0  0.00000000000E+00  0.00000000000E+00 -0.12023050672E+04  0.12023050672E+04  0.50400001928E-02 0.  1.
    10030    2    1    2    0    0  0.00000000000E+00  0.00000000000E+00 -0.60296905905E+03  0.18016410753E+04  0.16977452336E+04 0.  0.
        1    1    3    3  502    0  0.10756094578E+01 -0.70815347662E+02  0.59619523940E+03  0.60038715335E+03  0.50400001928E-02 0. -1.
       -1    1    3    3    0  502 -0.10756094578E+01  0.70815347662E+02 -0.11991642985E+04  0.12012539220E+04  0.50400001928E-02 0.  1.
</event>
<event>
 5   0  0.1269175E-04  0.1698514E+04  0.7818609E-02  0.8762213E-01
        2   -1    0    0  501    0  0.00000000000E+00  0.00000000000E+00  0.18413494391E+04  0.18413494391E+04  0.25500000920E-02 0.  1.
       -2   -1    0    0    0  501  0.00000000000E+00  0.00000000000E+00 -0.39168947142E+03  0.39168947143E+03  0.25500000920E-02 0. -1.
    10030    2    1    2    0    0  0.00000000000E+00  0.00000000000E+00  0.14496599676E+04  0.22330389105E+04  0.16985136897E+04 0.  0.
        2    1    3    3  502    0  0.32948218193E+03  0.55801139811E+03  0.14464826450E+04  0.15850070255E+04  0.25500000920E-02 0.  1.
       -2    1    3    3    0  502 -0.32948218193E+03 -0.55801139811E+03  0.31773226852E+01  0.64803188503E+03  0.25500000920E-02 0. -1.
</event>
<event>
 5   0  0.1333546E-04  0.1697199E+04  0.7818609E-02  0.8762964E-01
       -2   -1    0    0    0  501  0.00000000000E+00  0.00000000000E+00  0.48922081855E+03  0.48922081856E+03  0.25500000920E-02 0.  1.
        2   -1    0    0  501    0  0.00000000000E+00  0.00000000000E+00 -0.14719748817E+04  0.14719748817E+04  0.25500000920E-02 0. -1.
    10030    2    1    2    0    0  0.00000000000E+00  0.00000000000E+00 -0.98275406315E+03  0.19611957003E+04  0.16971985818E+04 0.  0.
        5    1    3    3  502    0  0.59800259868E+02  0.84350947801E+03 -0.57320388517E+03  0.10216012405E+04  0.46999998093E+01 0.  1.
       -5    1    3    3    0  502 -0.59800259868E+02 -0.84350947801E+03 -0.40955017798E+03  0.93959445978E+03  0.46999998093E+01 0. -1.
</event>
<event>
 5   0  0.6615842E-05  0.1697981E+04  0.7818609E-02  0.8762517E-01
        1   -1    0    0  501    0  0.00000000000E+00  0.00000000000E+00  0.11372622417E+04  0.11372622418E+04  0.50400001928E-02 0. -1.
       -1   -1    0    0    0  501  0.00000000000E+00  0.00000000000E+00 -0.63378951925E+03  0.63378951927E+03  0.50400001928E-02 0.  1.
    10030    2    1    2    0    0  0.00000000000E+00  0.00000000000E+00  0.50347272249E+03  0.17710517610E+04  0.16979810240E+04 0.  0.
        3    1    3    3  502    0 -0.12680403573E+03  0.83461773029E+03  0.34571863561E+03  0.91224306213E+03  0.10100000352E+00 0.  1.
       -3    1    3    3    0  502  0.12680403573E+03 -0.83461773029E+03  0.15775408688E+03  0.85880869891E+03  0.10100000352E+00 0. -1.
</event>
<event>
 5   0  0.6834837E-05  0.1701558E+04  0.7818609E-02  0.8760476E-01
        1   -1    0    0  501    0  0.00000000000E+00  0.00000000000E+00  0.15806494558E+04  0.15806494558E+04  0.50400001928E-02 0.  1.
       -1   -1    0    0    0  501  0.00000000000E+00  0.00000000000E+00 -0.45792890379E+03  0.45792890382E+03  0.50400001928E-02 0. -1.
    10030    2    1    2    0    0  0.00000000000E+00  0.00000000000E+00  0.11227205520E+04  0.20385783596E+04  0.17015581949E+04 0.  0.
        5    1    3    3  502    0  0.77740777772E+02 -0.81533002752E+03  0.28555448610E+03  0.86739272353E+03  0.46999998093E+01 0. -1.
       -5    1    3    3    0  502 -0.77740777772E+02  0.81533002752E+03  0.83716606592E+03  0.11711856361E+04  0.46999998093E+01 0.  1.
</event>
<event>
 5   0  0.1269175E-04  0.1700946E+04  0.7818609E-02  0.8760825E-01
       -2   -1    0    0    0  501  0.00000000000E+00  0.00000000000E+00  0.50306987496E+03  0.50306987496E+03  0.25500000920E-02 0.  1.
        2   -1    0    0  501    0  0.00000000000E+00  0.00000000000E+00 -0.14377812765E+04  0.14377812765E+04  0.25500000920E-02 0. -1.
    10030    2    1    2    0    0  0.00000000000E+00  0.00000000000E+00 -0.93471140152E+03  0.19408511514E+04  0.17009461449E+04 0.  0.
        2    1    3    3  502    0  0.27950745111E+03  0.76869166456E+03 -0.73322868631E+03  0.10984696613E+04  0.25500000920E-02 0.  1.
       -2    1    3    3    0  502 -0.27950745111E+03 -0.76869166456E+03 -0.20148271521E+03  0.84238149013E+03  0.25500000920E-02 0. -1.
</event>
<event>
 5   0  0.6564887E-05  0.1705349E+04  0.7818609E-02  0.8758319E-01
       -1   -1    0    0    0  501  0.00000000000E+00  0.00000000000E+00  0.67330750328E+03  0.67330750330E+03  0.50400001928E-02 0. -1.
        1   -1    0    0  501    0  0.00000000000E+00  0.00000000000E+00 -0.10798248169E+04  0.10798248169E+04  0.50400001928E-02 0.  1.
    10030    2    1    2    0    0  0.00000000000E+00  0.00000000000E+00 -0.40651731358E+03  0.17531323202E+04  0.17053494087E+04 0.  0.
        4    1    3    3  502    0 -0.16276108120E+03  0.69629271522E+03  0.27423154929E+03  0.76584546114E+03  0.12699999809E+01 0. -1.
       -4    1    3    3    0  502  0.16276108120E+03 -0.69629271522E+03 -0.68074886287E+03  0.98728685903E+03  0.12699999809E+01 0.  1.
</event>
<event>
 5   0  0.1393870E-04  0.1691750E+04  0.7818609E-02  0.8766084E-01
       -2   -1    0    0    0  501  0.00000000000E+00  0.00000000000E+00  0.28251512240E+03  0.28251512242E+03  0.25500000920E-02 0.  1.
        2   -1    0    0  501    0  0.00000000000E+00  0.00000000000E+00 -0.25326229212E+04  0.25326229212E+04  0.25500000920E-02 0. -1.
    10030    2    1    2    0    0  0.00000000000E+00  0.00000000000E+00 -0.22501077988E+04  0.28151380436E+04  0.16917497151E+04 0.  0.
        3    1    3    3  502    0  0.60155419016E+03 -0.12996696055E+02 -0.13572982423E+03  0.61681354816E+03  0.10100000352E+00 0.  1.
       -3    1    3    3    0  502 -0.60155419016E+03  0.12996696055E+02 -0.21143779745E+04  0.21983244954E+04  0.10100000352E+00 0. -1.
</event>
<event>
 5   0  0.1333546E-04  0.1708474E+04  0.7818609E-02  0.8756546E-01
        2   -1    0    0  501    0  0.00000000000E+00  0.00000000000E+00  0.11359133978E+04  0.11359133978E+04  0.25500000920E-02 0. -1.
       -2   -1    0    0    0  501  0.00000000000E+00  0.00000000000E+00 -0.64240898187E+03  0.64240898187E+03  0.25500000920E-02 0.  1.
    10030    2    1    2    0    0  0.00000000000E+00  0.00000000000E+00  0.49350441594E+03  0.17783223797E+04  0.17084741372E+04 0.  0.
        5    1    3    3  502    0 -0.47764421826E+03 -0.70380698660E+03  0.16472289657E+03  0.86639713543E+03  0.46999998093E+01 0. -1.
       -5    1    3    3    0  502  0.47764421826E+03  0.70380698660E+03  0.32878151937E+03  0.91192524425E+03  0.46999998093E+01 0.  1.
</event>
<event>
 5   0  0.1255362E-04  0.1655871E+04  0.7818609E-02  0.8786941E-01
       -2   -1    0    0    0  501  0.00000000000E+00  0.00000000000E+00  0.31256204262E+03  0.31256204263E+03  0.25500000920E-02 0.  1.
        2   -1    0    0  501    0  0.00000000000E+00  0.00000000000E+00 -0.21930922959E+04  0.21930922959E+04  0.25500000920E-02 0. -1.
    10030    2    1    2    0    0  0.00000000000E+00  0.00000000000E+00 -0.18805302533E+04  0.25056543386E+04  0.16558712603E+04 0.  0.
        1    1    3    3  502    0 -0.44798069902E+03  0.68868915655E+03 -0.10953062014E+04  0.13691877650E+04  0.50400001928E-02 0. -1.
       -1    1    3    3    0  502  0.44798069902E+03 -0.68868915655E+03 -0.78522405192E+03  0.11364665735E+04  0.50400001928E-02 0.  1.
</event>
<event>
 5   0  0.6564887E-05  0.1687588E+04  0.7818609E-02  0.8768475E-01
        1   -1    0    0  501    0  0.00000000000E+00  0.00000000000E+00  0.17068462202E+04  0.17068462202E+04  0.50400001928E-02 0. -1.
       -1   -1    0    0    0  501  0.00000000000E+00  0.00000000000E+00 -0.41713681513E+03  0.41713681516E+03  0.50400001928E-02 0.  1.
    10030    2    1    2    0    0  0.00000000000E+00  0.00000000000E+00  0.12897094051E+04  0.21239830354E+04  0.16875880970E+04 0.  0.
        4    1    3    3  502    0 -0.65489081627E+03 -0.53181231096E+03  0.62377685435E+03  0.10491927813E+04  0.12699999809E+01 0.  1.
       -4    1    3    3    0  502  0.65489081627E+03  0.53181231096E+03  0.66593255071E+03  0.10747902541E+04  0.12699999809E+01 0. -1.
</event>
<event>
 5   0  0.1255362E-04  0.1703362E+04  0.7818609E-02  0.8759449E-01
        2   -1    0    0  501    0  0.00000000000E+00  0.00000000000E+00  0.16671567902E+04  0.16671567902E+04  0.25500000920E-02 0. -1.
       -2   -1    0    0    0  501  0.00000000000E+00  0.00000000000E+00 -0.43508845446E+03  0.43508845447E+03  0.25500000920E-02 0.  1.
    10030    2    1    2    0    0  0.00000000000E+00  0.00000000000E+00  0.12320683358E+04  0.21022452447E+04  0.17033621708E+04 0.  0.
        1    1    3    3  502    0 -0.15640743419E+03  0.68829332236E+03  0.27824100609E+02  0.70638881905E+03  0.50400001928E-02 0.  1.
       -1    1    3    3    0  502  0.15640743419E+03 -0.68829332236E+03  0.12042442352E+04  0.13958564257E+04  0.50400001928E-02 0. -1.
</event>
<event>
 5   0  0.6601906E-05  0.1756984E+04  0.7818609E-02  0.8729515E-01
        1   -1    0    0  501    0  0.00000000000E+00  0.00000000000E+00  0.16092962271E+04  0.16092962271E+04  0.50400001928E-02 0.  1.
       -1   -1    0    0    0  501  0.00000000000E+00  0.00000000000E+00 -0.47955650055E+03  0.47955650058E+03  0.50400001928E-02 0. -1.
    10030    2    1    2    0    0  0.00000000000E+00  0.00000000000E+00  0.11297397265E+04  0.20888527277E+04  0.17569843107E+04 0.  0.
        1    1    3    3  502    0  0.87119592424E+03  0.89027534270E+02  0.48215705006E+03  0.99969178311E+03  0.50400001928E-02 0.  1.
       -1    1    3    3    0  502 -0.87119592424E+03 -0.89027534270E+02  0.64758267648E+03  0.10891609446E+04  0.50400001928E-02 0. -1.
</event>
<event>
 5   0  0.1285639E-04  0.1697518E+04  0.7818609E-02  0.8762781E-01
       -2   -1    0    0    0  501  0.00000000000E+00  0.00000000000E+00  0.67292560368E+03  0.67292560369E+03  0.25500000920E-02 0.  1.
        2   -1    0    0  501    0  0.00000000000E+00  0.00000000000E+00 -0.10705368641E+04  0.10705368641E+04  0.25500000920E-02 0. -1.
    10030    2    1    2    0    0  0.00000000000E+00  0.00000000000E+00 -0.39761126043E+03  0.17434624678E+04  0.16975177944E+04 0.  0.
        4    1    3    3  502    0  0.30266754989E+03  0.55822184642E+03 -0.77722769336E+03  0.10036452440E+04  0.12699999809E+01 0. -1.
       -4    1    3    3    0  502 -0.30266754989E+03 -0.55822184642E+03  0.37961643293E+03  0.73981722380E+03  0.12699999809E+01 0.  1.
</event>
<event>
 5   0  0.6601906E-05  0.1709920E+04  0.7818609E-02  0.8755727E-01
        1   -1    0    0  501    0  0.00000000000E+00  0.00000000000E+00  0.88206332591E+03  0.88206332593E+03  0.50400001928E-02 0.  1.
       -1   -1    0    0    0  501  0.00000000000E+00  0.00000000000E+00 -0.82868913157E+03  0.82868913158E+03  0.50400001928E-02 0. -1.
    10030    2    1    2    0    0  0.00000000000E+00  0.00000000000E+00  0.53374194349E+02  0.17107524575E+04  0.17099196374E+04 0.  0.
        1    1    3    3  502    0  0.67006185100E+03 -0.40474072955E+03 -0.31722201265E+03  0.84464652231E+03  0.50400001928E-02 0. -1.
       -1    1    3    3    0  502 -0.67006185100E+03  0.40474072955E+03  0.37059620700E+03  0.86610593520E+03  0.50400001928E-02 0.  1.
</event>
<event>
 5   0  0.1333546E-04  0.1698951E+04  0.7818609E-02  0.8761963E-01
        2   -1    0    0  501    0  0.00000000000E+00  0.00000000000E+00  0.17024698115E+04  0.17024698115E+04  0.25500000920E-02 0. -1.
       -2   -1    0    0    0  501  0.00000000000E+00  0.00000000000E+00 -0.42385966697E+03  0.42385966698E+03  0.25500000920E-02 0.  1.
    10030    2    1    2    0    0  0.00000000000E+00  0.00000000000E+00  0.12786101445E+04  0.21263294785E+04  0.16989506024E+04 0.  0.
        5    1    3    3  502    0  0.62665966809E+03  0.11924969173E+03 -0.62752781794E+02  0.64100142761E+03  0.46999998093E+01 0.  1.
       -5    1    3    3    0  502 -0.62665966809E+03 -0.11924969173E+03  0.13413629263E+04  0.14853280508E+04  0.46999998093E+01 0. -1.
</event>
<event>
 5   0  0.1333546E-04  0.1705895E+04  0.7818609E-02  0.8758009E-01
        2   -1    0    0  501    0  0.00000000000E+00  0.00000000000E+00  0.10134424180E+04  0.10134424180E+04  0.25500000920E-02 0.  1.
       -2   -1    0    0    0  501  0.00000000000E+00  0.00000000000E+00 -0.71786933499E+03  0.71786933500E+03  0.25500000920E-02 0. -1.
    10030    2    1    2    0    0  0.00000000000E+00  0.00000000000E+00  0.29557308304E+03  0.17313117530E+04  0.17058947619E+04 0.  0.
        5    1    3    3  502    0  0.26980866483E+03  0.76590360854E+03  0.41261910151E+03  0.91086863274E+03  0.46999998093E+01 0.  1.
       -5    1    3    3    0  502 -0.26980866483E+03 -0.76590360854E+03 -0.11704601847E+03  0.82044312029E+03  0.46999998093E+01 0. -1.
</event>
<event>
 5   0  0.1269175E-04  0.1693091E+04  0.7818609E-02  0.8765315E-01
        2   -1    0    0  501    0  0.00000000000E+00  0.00000000000E+00  0.10340324939E+04  0.10340324939E+04  0.25500000920E-02 0.  1.
       -2   -1    0    0    0  501  0.00000000000E+00  0.00000000000E+00 -0.69305296797E+03  0.69305296797E+03  0.25500000920E-02 0. -1.
    10030    2    1    2    0    0  0.00000000000E+00  0.00000000000E+00  0.34097952595E+03  0.17270854619E+04  0.16930910063E+04 0.  0.
        2    1    3    3  502    0  0.28445295081E+03 -0.63837758709E+03  0.65778393383E+03  0.95974951344E+03  0.25500000920E-02 0.  1.
       -2    1    3    3    0  502 -0.28445295081E+03  0.63837758709E+03 -0.31680440789E+03  0.76733594845E+03  0.25500000920E-02 0. -1.
</event>
<event>
 5   0  0.1269175E-04  0.1714108E+04  0.7818609E-02  0.8753359E-01
       -2   -1    0    0    0  501  0.00000000000E+00  0.00000000000E+00  0.36574112862E+03  0.36574112863E+03  0.25500000920E-02 0. -1.
        2   -1    0    0  501    0  0.00000000000E+00  0.00000000000E+00 -0.20083650672E+04  0.20083650672E+04  0.25500000920E-02 0.  1.
    10030    2    1    2    0    0  0.00000000000E+00  0.00000000000E+00 -0.16426239386E+04  0.23741061959E+04  0.17141081721E+04 0.  0.
        2    1    3    3  502    0 -0.19288749411E+03 -0.83317742332E+03 -0.74355832957E+03  0.11332560141E+04  0.25500000920E-02 0.  1.
       -2    1    3    3    0  502  0.19288749411E+03  0.83317742332E+03 -0.89906560906E+03  0.12408501817E+04  0.25500000920E-02 0. -1.
</event>
<event>
 5   0  0.1255362E-04  0.1746256E+04  0.7818609E-02  0.8735414E-01
        2   -1    0    0  501    0  0.00000000000E+00  0.00000000000E+00  0.75362644734E+03  0.75362644735E+03  0.25500000920E-02 0.  1.
       -2   -1    0    0    0  501  0.00000000000E+00  0.00000000000E+00 -0.10115791471E+04  0.10115791471E+04  0.25500000920E-02 0. -1.
    10030    2    1    2    0    0  0.00000000000E+00  0.00000000000E+00 -0.25795269971E+03  0.17652055944E+04  0.17462563372E+04 0.  0.
        1    1    3    3  502    0 -0.78628583958E+03 -0.35622649860E+03 -0.26158702284E+03  0.90198143571E+03  0.50400001928E-02 0. -1.
       -1    1    3    3    0  502  0.78628583958E+03  0.35622649860E+03  0.36343231247E+01  0.86322415869E+03  0.50400001928E-02 0.  1.
</event>
<event>
 5   0  0.6834837E-05  0.1694524E+04  0.7818609E-02  0.8764494E-01
        1   -1    0    0  501    0  0.00000000000E+00  0.00000000000E+00  0.14508227431E+04  0.14508227431E+04  0.50400001928E-02 0. -1.
       -1   -1    0    0    0  501  0.00000000000E+00  0.00000000000E+00 -0.49479018918E+03  0.49479018921E+03  0.50400001928E-02 0.  1.
    10030    2    1    2    0    0  0.00000000000E+00  0.00000000000E+00  0.95603255393E+03  0.19456129323E+04  0.16945239562E+04 0.  0.
        5    1    3    3  502    0 -0.35947112657E+03 -0.71631708597E+03  0.79350613502E+03  0.11278314301E+04  0.46999998093E+01 0. -1.
       -5    1    3    3    0  502  0.35947112657E+03  0.71631708597E+03  0.16252641891E+03  0.81778150219E+03  0.46999998093E+01 0.  1.
</event>
<event>
 5   0  0.6615842E-05  0.1704177E+04  0.7818609E-02  0.8758986E-01
       -1   -1    0    0    0  501  0.00000000000E+00  0.00000000000E+00  0.78367371671E+03  0.78367371673E+03  0.50400001928E-02 0.  1.
        1   -1    0    0  501    0  0.00000000000E+00  0.00000000000E+00 -0.92647542877E+03  0.92647542878E+03  0.50400001928E-02 0. -1.
    10030    2    1    2    0    0  0.00000000000E+00  0.00000000000E+00 -0.14280171206E+03  0.17101491455E+04  0.17041765668E+04 0.  0.
        3    1    3    3  502    0 -0.30310771606E+03 -0.21511070517E+03 -0.84083934993E+03  0.91932460296E+03  0.10100000352E+00 0. -1.
       -3    1    3    3    0  502  0.30310771606E+03  0.21511070517E+03  0.69803763787E+03  0.79082454255E+03  0.10100000352E+00 0.  1.
</event>
<event>
 5   0  0.1393870E-04  0.1702611E+04  0.7818609E-02  0.8759877E-01
        2   -1    0    0  501    0  0.00000000000E+00  0.00000000000E+00  0.23662455895E+04  0.23662455895E+04  0.25500000920E-02 0.  1.
       -2   -1    0    0    0  501  0.00000000000E+00  0.00000000000E+00 -0.30627468209E+03  0.30627468210E+03  0.25500000920E-02 0. -1.
    10030    2    1    2    0    0  0.00000000000E+00  0.00000000000E+00  0.20599709074E+04  0.26725202716E+04  0.17026110721E+04 0.  0.
        3    1    3    3  502    0 -0.27907758536E+03  0.44794262128E+02  0.22904431273E+04  0.23078172706E+04  0.10100000352E+00 0.  1.
       -3    1    3    3    0  502  0.27907758536E+03 -0.44794262128E+02 -0.23047221995E+03  0.36470300101E+03  0.10100000352E+00 0. -1.
</event>
<event>
 5   0  0.6601906E-05  0.1702934E+04  0.7818609E-02  0.8759693E-01
        1   -1    0    0  501    0  0.00000000000E+00  0.00000000000E+00  0.86890180332E+03  0.86890180333E+03  0.50400001928E-02 0.  1.
       -1   -1    0    0    0  501  0.00000000000E+00  0.00000000000E+00 -0.83438219722E+03  0.83438219724E+03  0.50400001928E-02 0. -1.
    10030    2    1    2    0    0  0.00000000000E+00  0.00000000000E+00  0.34519606094E+02  0.17032840006E+04  0.17029341688E+04 0.  0.
        1    1    3    3  502    0 -0.84869710591E+03 -0.68621851133E+02  0.16581586804E+02  0.85162825522E+03  0.50400001928E-02 0.  1.
       -1    1    3    3    0  502  0.84869710591E+03  0.68621851133E+02  0.17938019290E+02  0.85165574536E+03  0.50400001928E-02 0. -1.
</event>
<event>
 5   0  0.1269175E-04  0.1701977E+04  0.7818609E-02  0.8760238E-01
        2   -1    0    0  501    0  0.00000000000E+00  0.00000000000E+00  0.16567778190E+04  0.16567778190E+04  0.25500000920E-02 0. -1.
       -2   -1    0    0    0  501  0.00000000000E+00  0.00000000000E+00 -0.43710240964E+03  0.43710240964E+03  0.25500000920E-02 0.  1.
    10030    2    1    2    0    0  0.00000000000E+00  0.00000000000E+00  0.12196754093E+04  0.20938802286E+04  0.17019771760E+04 0.  0.
        2    1    3    3  502    0  0.94415574452E+01  0.26310033713E+03  0.16054170237E+04  0.16268603967E+04  0.25500000920E-02 0. -1.
       -2    1    3    3    0  502 -0.94415574452E+01 -0.26310033713E+03 -0.38574161432E+03  0.46701983195E+03  0.25500000920E-02 0.  1.
</event>
<event>
 5   0  0.6564887E-05  0.1634031E+04  0.7818609E-02  0.8799910E-01
       -1   -1    0    0    0  501  0.00000000000E+00  0.00000000000E+00  0.14109878127E+04  0.14109878127E+04  0.50400001928E-02 0.  1.
        1   -1    0    0  501    0  0.00000000000E+00  0.00000000000E+00 -0.47308292098E+03  0.47308292100E+03  0.50400001928E-02 0. -1.
    10030    2    1    2    0    0  0.00000000000E+00  0.00000000000E+00  0.93790489173E+03  0.18840707337E+04  0.16340308882E+04 0.  0.
        4    1    3    3  502    0  0.71720137915E+02  0.79325348561E+03  0.25912254797E+03  0.83758043099E+03  0.12699999809E+01 0. -1.
       -4    1    3    3    0  502 -0.71720137915E+02 -0.79325348561E+03  0.67878234375E+03  0.10464903027E+04  0.12699999809E+01 0.  1.
</event>
<event>
 5   0  0.6601906E-05  0.1701460E+04  0.7818609E-02  0.8760532E-01
       -1   -1    0    0    0  501  0.00000000000E+00  0.00000000000E+00  0.76402176735E+03  0.76402176736E+03  0.50400001928E-02 0. -1.
        1   -1    0    0  501    0  0.00000000000E+00  0.00000000000E+00 -0.94727836213E+03  0.94727836214E+03  0.50400001928E-02 0.  1.
    10030    2    1    2    0    0  0.00000000000E+00  0.00000000000E+00 -0.18325659478E+03  0.17113001295E+04  0.17014597126E+04 0.  0.
        1    1    3    3  502    0 -0.42737479014E+03 -0.61262166720E+03 -0.50115238192E+03  0.89950443484E+03  0.50400001928E-02 0.  1.
       -1    1    3    3    0  502  0.42737479014E+03  0.61262166720E+03  0.31789578713E+03  0.81179569466E+03  0.50400001928E-02 0. -1.
</event>
<event>
 5   0  0.6539134E-05  0.1697604E+04  0.7818609E-02  0.8762732E-01
       -1   -1    0    0    0  501  0.00000000000E+00  0.00000000000E+00  0.48450891089E+03  0.48450891091E+03  0.50400001928E-02 0. -1.
        1   -1    0    0  501    0  0.00000000000E+00  0.00000000000E+00 -0.14870006138E+04  0.14870006138E+04  0.50400001928E-02 0.  1.
    10030    2    1    2    0    0  0.00000000000E+00  0.00000000000E+00 -0.10024917029E+04  0.19715095247E+04  0.16976042506E+04 0.  0.
        2    1    3    3  502    0 -0.69107652513E+03 -0.46511908765E+03 -0.31204046726E+03  0.88954582934E+03  0.25500000920E-02 0. -1.
       -2    1    3    3    0  502  0.69107652513E+03  0.46511908765E+03 -0.69045123567E+03  0.10819636954E+04  0.25500000920E-02 0.  1.
</event>
<event>
 5   0  0.6615842E-05  0.1620936E+04  0.7818609E-02  0.8807789E-01
        1   -1    0    0  501    0  0.00000000000E+00  0.00000000000E+00  0.70182075811E+03  0.70182075812E+03  0.50400001928E-02 0. -1.
       -1   -1    0    0    0  501  0.00000000000E+00  0.00000000000E+00 -0.93593429268E+03  0.93593429269E+03  0.50400001928E-02 0.  1.
    10030    2    1    2    0    0  0.00000000000E+00  0.00000000000E+00 -0.23411353457E+03  0.16377550508E+04  0.16209356740E+04 0.  0.
        3    1    3    3  502    0  0.35578778414E+03  0.80714569524E+02  0.61416419428E+03  0.71435107392E+03  0.10100000352E+00 0. -1.
       -3    1    3    3    0  502 -0.35578778414E+03 -0.80714569524E+02 -0.84827772885E+03  0.92340397689E+03  0.10100000352E+00 0.  1.
</event>
<event>
 5   0  0.1285639E-04  0.1677440E+04  0.7818609E-02  0.8774337E-01
        2   -1    0    0  501    0  0.00000000000E+00  0.00000000000E+00  0.48887795886E+03  0.48887795886E+03  0.25500000920E-02 0. -1.
       -2   -1    0    0    0  501  0.00000000000E+00  0.00000000000E+00 -0.14389089799E+04  0.14389089799E+04  0.25500000920E-02 0.  1.
    10030    2    1    2    0    0  0.00000000000E+00  0.00000000000E+00 -0.95003102101E+03  0.19277869387E+04  0.16774395787E+04 0.  0.
        4    1    3    3  502    0 -0.62448307341E+03 -0.33074274032E+03  0.44157055025E+02  0.70804048447E+03  0.12699999809E+01 0. -1.
       -4    1    3    3    0  502  0.62448307341E+03  0.33074274032E+03 -0.99418807604E+03  0.12197464543E+04  0.12699999809E+01 0.  1.
</event>
<event>
 5   0  0.1285639E-04  0.1717114E+04  0.7818609E-02  0.8751663E-01
       -2   -1    0    0    0  501  0.00000000000E+00  0.00000000000E+00  0.36794378471E+03  0.36794378472E+03  0.25500000920E-02 0. -1.
        2   -1    0    0  501    0  0.00000000000E+00  0.00000000000E+00 -0.20033503434E+04  0.20033503434E+04  0.25500000920E-02 0.  1.
    10030    2    1    2    0    0  0.00000000000E+00  0.00000000000E+00 -0.16354065587E+04  0.23712941282E+04  0.17171142157E+04 0.  0.
        4    1    3    3  502    0 -0.21795407672E+02  0.80503489714E+03 -0.12286742067E+04  0.14690807141E+04  0.12699999809E+01 0.  1.
       -4    1    3    3    0  502  0.21795407672E+02 -0.80503489714E+03 -0.40673235201E+03  0.90221341405E+03  0.12699999809E+01 0. -1.
</event>
<event>
 5   0  0.6539134E-05  0.1701200E+04  0.7818609E-02  0.8760681E-01
        1   -1    0    0  501    0  0.00000000000E+00  0.00000000000E+00  0.54650332391E+03  0.54650332393E+03  0.50400001928E-02 0.  1.
       -1   -1    0    0    0  501  0.00000000000E+00  0.00000000000E+00 -0.13239077081E+04  0.13239077081E+04  0.50400001928E-02 0. -1.
    10030    2    1    2    0    0  0.00000000000E+00  0.00000000000E+00 -0.77740438421E+03  0.18704110321E+04  0.17011995334E+04 0.  0.
        2    1    3    3  502    0 -0.83492090187E+03  0.10082548248E+03 -0.24849862355E+03  0.87693229854E+03  0.25500000920E-02 0.  1.
       -2    1    3    3    0  502  0.83492090187E+03 -0.10082548248E+03 -0.52890576066E+03  0.99347873353E+03  0.25500000920E-02 0. -1.
</event>
<event>
 5   0  0.1285639E-04  0.1697314E+04  0.7818609E-02  0.8762898E-01
        2   -1    0    0  501    0  0.00000000000E+00  0.00000000000E+00  0.59479687721E+03  0.59479687722E+03  0.25500000920E-02 0.  1.
       -2   -1    0    0    0  501  0.00000000000E+00  0.00000000000E+00 -0.12108648878E+04  0.12108648878E+04  0.25500000920E-02 0. -1.
    10030    2    1    2    0    0  0.00000000000E+00  0.00000000000E+00 -0.61606801061E+03  0.18056617650E+04  0.16973139415E+04 0.  0.
        4    1    3    3  502    0 -0.31368954160E+03  0.78400027920E+03 -0.21801902177E+03  0.87211895579E+03  0.12699999809E+01 0. -1.
       -4    1    3    3    0  502  0.31368954160E+03 -0.78400027920E+03 -0.39804898884E+03  0.93354280925E+03  0.12699999809E+01 0.  1.
</event>
<event>
 5   0  0.1255362E-04  0.1700081E+04  0.7818609E-02  0.8761318E-01
       -2   -1    0    0    0  501  0.00000000000E+00  0.00000000000E+00  0.41882574706E+03  0.41882574707E+03  0.25500000920E-02 0. -1.
        2   -1    0    0  501    0  0.00000000000E+00  0.00000000000E+00 -0.17252263834E+04  0.17252263834E+04  0.25500000920E-02 0.  1.
    10030    2    1    2    0    0  0.00000000000E+00  0.00000000000E+00 -0.13064006364E+04  0.21440521305E+04  0.17000814438E+04 0.  0.
        1    1    3    3  502    0  0.84422791948E+03  0.97277978800E+02 -0.62844057837E+03  0.10569396131E+04  0.50400001928E-02 0. -1.
       -1    1    3    3    0  502 -0.84422791948E+03 -0.97277978800E+02 -0.67796005799E+03  0.10871125174E+04  0.50400001928E-02 0.  1.
</event>
<event>
 5   0  0.1285639E-04  0.1703375E+04  0.7818609E-02  0.8759442E-01
        2   -1    0    0  501    0  0.00000000000E+00  0.00000000000E+00  0.95478996652E+03  0.95478996652E+03  0.25500000920E-02 0.  1.
       -2   -1    0    0    0  501  0.00000000000E+00  0.00000000000E+00 -0.75971816297E+03  0.75971816297E+03  0.25500000920E-02 0. -1.
    10030    2    1    2    0    0  0.00000000000E+00  0.00000000000E+00  0.19507180355E+03  0.17145081295E+04  0.17033746263E+04 0.  0.
        4    1    3    3  502    0  0.45159159761E+02 -0.42027897961E+03 -0.64668571753E+03  0.77257866950E+03  0.12699999809E+01 0. -1.
       -4    1    3    3    0  502 -0.45159159761E+02  0.42027897961E+03  0.84175752108E+03  0.94192946000E+03  0.12699999809E+01 0.  1.
</event>
<event>
 5   0  0.6834837E-05  0.1707843E+04  0.7818609E-02  0.8756904E-01
        1   -1    0    0  501    0  0.00000000000E+00  0.00000000000E+00  0.77715901461E+03  0.77715901462E+03  0.50400001928E-02 0. -1.
       -1   -1    0    0    0  501  0.00000000000E+00  0.00000000000E+00 -0.93826583714E+03  0.93826583716E+03  0.50400001928E-02 0.  1.
    10030    2    1    2    0    0  0.00000000000E+00  0.00000000000E+00 -0.16110682253E+03  0.17154248518E+04  0.17078427954E+04 0.  0.
        5    1    3    3  502    0 -0.88229019410E+01 -0.64835237728E+03 -0.63864683115E+03  0.91012664704E+03  0.46999998093E+01 0.  1.
       -5    1    3    3    0  502  0.88229019410E+01  0.64835237728E+03  0.47754000862E+03  0.80529820473E+03  0.46999998093E+01 0. -1.
</event>
<event>
 5   0  0.1333546E-04  0.1700891E+04  0.7818609E-02  0.8760856E-01
       -2   -1    0    0    0  501  0.00000000000E+00  0.00000000000E+00  0.69358200775E+03  0.69358200776E+03  0.25500000920E-02 0. -1.
        2   -1    0    0  501    0  0.00000000000E+00  0.00000000000E+00 -0.10427858754E+04  0.10427858754E+04  0.25500000920E-02 0.  1.
    10030    2    1    2    0    0  0.00000000000E+00  0.00000000000E+00 -0.34920386762E+03  0.17363678831E+04  0.17008909678E+04 0.  0.
        5    1    3    3  502    0 -0.69976355831E+02  0.19600520422E+03 -0.10163737896E+04  0.10374740963E+04  0.46999998093E+01 0.  1.
       -5    1    3    3    0  502  0.69976355831E+02 -0.19600520422E+03  0.66716992195E+03  0.69889378679E+03  0.46999998093E+01 0. -1.
</event>
<event>
 5   0  0.6834837E-05  0.1707093E+04  0.7818609E-02  0.8757329E-01
        1   -1    0    0  501    0  0.00000000000E+00  0.00000000000E+00  0.87854633392E+03  0.87854633393E+03  0.50400001928E-02 0. -1.
       -1   -1    0    0    0  501  0.00000000000E+00  0.00000000000E+00 -0.82925790442E+03  0.82925790444E+03  0.50400001928E-02 0.  1.
    10030    2    1    2    0    0  0.00000000000E+00  0.00000000000E+00  0.49288429496E+02  0.17078042384E+04  0.17070928409E+04 0.  0.
        5    1    3    3  502    0  0.24648915879E+03 -0.60354315954E+03  0.57578045701E+03  0.86980829813E+03  0.46999998093E+01 0. -1.
       -5    1    3    3    0  502 -0.24648915879E+03  0.60354315954E+03 -0.52649202751E+03  0.83799594024E+03  0.46999998093E+01 0.  1.
</event>
<event>
 5   0  0.6615842E-05  0.1700836E+04  0.7818609E-02  0.8760887E-01
        1   -1    0    0  501    0  0.00000000000E+00  0.00000000000E+00  0.16578110202E+04  0.16578110202E+04  0.50400001928E-02 0. -1.
       -1   -1    0    0    0  501  0.00000000000E+00  0.00000000000E+00 -0.43624463399E+03  0.43624463402E+03  0.50400001928E-02 0.  1.
    10030    2    1    2    0    0  0.00000000000E+00  0.00000000000E+00  0.12215663862E+04  0.20940556542E+04  0.17008364551E+04 0.  0.
        3    1    3    3  502    0 -0.18430933584E+03  0.33926548853E+03  0.15436821827E+04  0.15912340163E+04  0.10100000352E+00 0. -1.
       -3    1    3    3    0  502  0.18430933584E+03 -0.33926548853E+03 -0.32211579656E+03  0.50282163794E+03  0.10100000352E+00 0.  1.
</event>
<event>
 5   0  0.1333546E-04  0.1712979E+04  0.7818609E-02  0.8753996E-01
        2   -1    0    0  501    0  0.00000000000E+00  0.00000000000E+00  0.86378312850E+03  0.86378312850E+03  0.25500000920E-02 0.  1.
       -2   -1    0    0    0  501  0.00000000000E+00  0.00000000000E+00 -0.84925778232E+03  0.84925778233E+03  0.25500000920E-02 0. -1.
    10030    2    1    2    0    0  0.00000000000E+00  0.00000000000E+00  0.14525346171E+02  0.17130409108E+04  0.17129793275E+04 0.  0.
        5    1    3    3  502    0 -0.22229474653E+03 -0.68150101081E+03 -0.46146930659E+03  0.85254594773E+03  0.46999998093E+01 0. -1.
       -5    1    3    3    0  502  0.22229474653E+03  0.68150101081E+03  0.47599465276E+03  0.86049496310E+03  0.46999998093E+01 0.  1.
</event>
<event>
 5   0  0.6601906E-05  0.1701325E+04  0.7818609E-02  0.8760609E-01
        1   -1    0    0  501    0  0.00000000000E+00  0.00000000000E+00  0.19641033487E+04  0.19641033487E+04  0.50400001928E-02 0. -1.
       -1   -1    0    0    0  501  0.00000000000E+00  0.00000000000E+00 -0.36842606330E+03  0.36842606333E+03  0.50400001928E-02 0.  1.
    10030    2    1    2    0    0  0.00000000000E+00  0.00000000000E+00  0.15956772854E+04  0.23325294121E+04  0.17013252067E+04 0.  0.
        1    1    3    3  502    0  0.49101646021E+03  0.16026994765E+03  0.17245049990E+04  0.18001947428E+04  0.50400001928E-02 0. -1.
       -1    1    3    3    0  502 -0.49101646021E+03 -0.16026994765E+03 -0.12882771358E+03  0.53233466929E+03  0.50400001928E-02 0.  1.
</event>
<event>
 5   0  0.6564887E-05  0.1606990E+04  0.7818609E-02  0.8816265E-01
        1   -1    0    0  501    0  0.00000000000E+00  0.00000000000E+00  0.16025815866E+04  0.16025815866E+04  0.50400001928E-02 0.  1.
       -1   -1    0    0    0  501  0.00000000000E+00  0.00000000000E+00 -0.40285280170E+03  0.40285280173E+03  0.50400001928E-02 0. -1.
    10030    2    1    2    0    0  0.00000000000E+00  0.00000000000E+00  0.11997287849E+04  0.20054343883E+04  0.16069903324E+04 0.  0.
        4    1    3    3  502    0  0.40083569999E+03  0.39289064334E+03  0.13173732653E+04  0.14319588852E+04  0.12699999809E+01 0.  1.
       -4    1    3    3    0  502 -0.40083569999E+03 -0.39289064334E+03 -0.11764448037E+03  0.57347550311E+03  0.12699999809E+01 0. -1.
</event>
<event>
 5   0  0.6834837E-05  0.1704618E+04  0.7818609E-02  0.8758735E-01
       -1   -1    0    0    0  501  0.00000000000E+00  0.00000000000E+00  0.11134162874E+04  0.11134162874E+04  0.50400001928E-02 0.  1.
        1   -1    0    0  501    0  0.00000000000E+00  0.00000000000E+00 -0.65243363111E+03  0.65243363113E+03  0.50400001928E-02 0. -1.
    10030    2    1    2    0    0  0.00000000000E+00  0.00000000000E+00  0.46098265632E+03  0.17658499186E+04  0.17046175305E+04 0.  0.
        5    1    3    3  502    0  0.24582535859E+02  0.69517432556E+03 -0.27967922756E+03  0.74974275876E+03  0.46999998093E+01 0. -1.
       -5    1    3    3    0  502 -0.24582535859E+02 -0.69517432556E+03  0.74066188387E+03  0.10161071598E+04  0.46999998093E+01 0.  1.
</event>
<event>
 5   0  0.6601906E-05  0.1700801E+04  0.7818609E-02  0.8760908E-01
       -1   -1    0    0    0  501  0.00000000000E+00  0.00000000000E+00  0.56455976153E+03  0.56455976155E+03  0.50400001928E-02 0.  1.
        1   -1    0    0  501    0  0.00000000000E+00  0.00000000000E+00 -0.12809643008E+04  0.12809643008E+04  0.50400001928E-02 0. -1.
    10030    2    1    2    0    0  0.00000000000E+00  0.00000000000E+00 -0.71640453929E+03  0.18455240624E+04  0.17008008704E+04 0.  0.
        1    1    3    3  502    0  0.84907751340E+03  0.23386534511E+02 -0.31344509930E+03  0.90538797433E+03  0.50400001928E-02 0. -1.
       -1    1    3    3    0  502 -0.84907751340E+03 -0.23386534511E+02 -0.40295943999E+03  0.94013608805E+03  0.50400001928E-02 0.  1.
</event>
<event>
 5   0  0.6601906E-05  0.1699375E+04  0.7818609E-02  0.8761721E-01
        1   -1    0    0  501    0  0.00000000000E+00  0.00000000000E+00  0.76484956494E+03  0.76484956496E+03  0.50400001928E-02 0.  1.
       -1   -1    0    0    0  501  0.00000000000E+00  0.00000000000E+00 -0.94393563040E+03  0.94393563041E+03  0.50400001928E-02 0. -1.
    10030    2    1    2    0    0  0.00000000000E+00  0.00000000000E+00 -0.17908606546E+03  0.17087851954E+04  0.16993748924E+04 0.  0.
        1    1    3    3  502    0 -0.68587169612E+02  0.84574991571E+03 -0.13419202884E+03  0.85907195298E+03  0.50400001928E-02 0. -1.
       -1    1    3    3    0  502  0.68587169612E+02 -0.84574991571E+03 -0.44894036615E+02  0.84971324240E+03  0.50400001928E-02 0.  1.
</event>
<event>
 5   0  0.1285639E-04  0.1705883E+04  0.7818609E-02  0.8758016E-01
       -2   -1    0    0    0  501  0.00000000000E+00  0.00000000000E+00  0.72632497316E+03  0.72632497316E+03  0.25500000920E-02 0.  1.
        2   -1    0    0  501    0  0.00000000000E+00  0.00000000000E+00 -0.10016307842E+04  0.10016307842E+04  0.25500000920E-02 0. -1.
    10030    2    1    2    0    0  0.00000000000E+00  0.00000000000E+00 -0.27530581106E+03  0.17279557574E+04  0.17058832932E+04 0.  0.
        4    1    3    3  502    0 -0.77509446927E+03 -0.33040232375E+03 -0.33832328747E+01  0.84258542060E+03  0.12699999809E+01 0.  1.
       -4    1    3    3    0  502  0.77509446927E+03  0.33040232375E+03 -0.27192257818E+03  0.88537033679E+03  0.12699999809E+01 0. -1.
</event>
<event>
 5   0  0.6564887E-05  0.1692444E+04  0.7818609E-02  0.8765685E-01
        1   -1    0    0  501    0  0.00000000000E+00  0.00000000000E+00  0.48290981668E+03  0.48290981670E+03  0.50400001928E-02 0. -1.
       -1   -1    0    0    0  501  0.00000000000E+00  0.00000000000E+00 -0.14828691797E+04  0.14828691797E+04  0.50400001928E-02 0.  1.
    10030    2    1    2    0    0  0.00000000000E+00  0.00000000000E+00 -0.99995936305E+03  0.19657789964E+04  0.16924444851E+04 0.  0.
        4    1    3    3  502    0 -0.48970062620E+03  0.36357358501E+03  0.18135632810E+03  0.63630510423E+03  0.12699999809E+01 0. -1.
       -4    1    3    3    0  502  0.48970062620E+03 -0.36357358501E+03 -0.11813156912E+04  0.13294738922E+04  0.12699999809E+01 0.  1.
</event>
<event>
 5   0  0.6601906E-05  0.1698722E+04  0.7818609E-02  0.8762093E-01
        1   -1    0    0  501    0  0.00000000000E+00  0.00000000000E+00  0.10536877162E+04  0.10536877162E+04  0.50400001928E-02 0. -1.
       -1   -1    0    0    0  501  0.00000000000E+00  0.00000000000E+00 -0.68465677505E+03  0.68465677507E+03  0.50400001928E-02 0.  1.
    10030    2    1    2    0    0  0.00000000000E+00  0.00000000000E+00  0.36903094115E+03  0.17383444913E+04  0.16987223831E+04 0.  0.
        1    1    3    3  502    0 -0.18759292936E+03  0.56743129186E+02  0.10302321870E+04  0.10487083718E+04  0.50400001928E-02 0. -1.
       -1    1    3    3    0  502  0.18759292936E+03 -0.56743129186E+02 -0.66120124583E+03  0.68963611954E+03  0.50400001928E-02 0.  1.
</event>
<event>
 5   0  0.6615842E-05  0.1711772E+04  0.7818609E-02  0.8754679E-01
       -1   -1    0    0    0  501  0.00000000000E+00  0.00000000000E+00  0.72583051207E+03  0.72583051209E+03  0.50400001928E-02 0. -1.
        1   -1    0    0  501    0  0.00000000000E+00  0.00000000000E+00 -0.10092449252E+04  0.10092449252E+04  0.50400001928E-02 0.  1.
    10030    2    1    2    0    0  0.00000000000E+00  0.00000000000E+00 -0.28341441311E+03  0.17350754373E+04  0.17117719017E+04 0.  0.
        3    1    3    3  502    0 -0.10308678357E+03 -0.76055879558E+03 -0.52563028121E+03  0.93024930487E+03  0.10100000352E+00 0.  1.
       -3    1    3    3    0  502  0.10308678357E+03  0.76055879558E+03  0.24221586810E+03  0.80482613242E+03  0.10100000352E+00 0. -1.
</event>
<event>
 5   0  0.6615842E-05  0.1700106E+04  0.7818609E-02  0.8761304E-01
       -1   -1    0    0    0  501  0.00000000000E+00  0.00000000000E+00  0.43481917059E+03  0.43481917062E+03  0.50400001928E-02 0.  1.
        1   -1    0    0  501    0  0.00000000000E+00  0.00000000000E+00 -0.16618182794E+04  0.16618182794E+04  0.50400001928E-02 0. -1.
    10030    2    1    2    0    0  0.00000000000E+00  0.00000000000E+00 -0.12269991088E+04  0.20966374500E+04  0.17001064037E+04 0.  0.
        3    1    3    3  502    0 -0.23018828830E+03 -0.74140290946E+03 -0.18642565624E+03  0.79838553202E+03  0.10100000352E+00 0.  1.
       -3    1    3    3    0  502  0.23018828830E+03  0.74140290946E+03 -0.10405734526E+04  0.12982519180E+04  0.10100000352E+00 0. -1.
</event>
<event>
 5   0  0.1285639E-04  0.1702625E+04  0.7818609E-02  0.8759869E-01
        2   -1    0    0  501    0  0.00000000000E+00  0.00000000000E+00  0.93295137166E+03  0.93295137166E+03  0.25500000920E-02 0.  1.
       -2   -1    0    0    0  501  0.00000000000E+00  0.00000000000E+00 -0.77681723276E+03  0.77681723277E+03  0.25500000920E-02 0. -1.
    10030    2    1    2    0    0  0.00000000000E+00  0.00000000000E+00  0.15613413890E+03  0.17097686044E+04  0.17026246831E+04 0.  0.
        4    1    3    3  502    0 -0.29274399645E+03 -0.14856398198E+03 -0.71069713535E+03  0.78285524542E+03  0.12699999809E+01 0. -1.
       -4    1    3    3    0  502  0.29274399645E+03  0.14856398198E+03  0.86683127424E+03  0.92691335901E+03  0.12699999809E+01 0.  1.
</event>
<event>
 5   0  0.6539134E-05  0.1649030E+04  0.7818609E-02  0.8790980E-01
       -1   -1    0    0    0  501  0.00000000000E+00  0.00000000000E+00  0.94100869890E+03  0.94100869892E+03  0.50400001928E-02 0. -1.
        1   -1    0    0  501    0  0.00000000000E+00  0.00000000000E+00 -0.72244293172E+03  0.72244293174E+03  0.50400001928E-02 0.  1.
    10030    2    1    2    0    0  0.00000000000E+00  0.00000000000E+00  0.21856576718E+03  0.16634516307E+04  0.16490301189E+04 0.  0.
        2    1    3    3  502    0  0.26526281378E+03  0.77310338777E+03 -0.16425304444E+00  0.81734523645E+03  0.25500000920E-02 0.  1.
       -2    1    3    3    0  502 -0.26526281378E+03 -0.77310338777E+03  0.21873002023E+03  0.84610639421E+03  0.25500000920E-02 0. -1.
</event>
<event>
 5   0  0.6564887E-05  0.1702150E+04  0.7818609E-02  0.8760139E-01
        1   -1    0    0  501    0  0.00000000000E+00  0.00000000000E+00  0.13590887887E+04  0.13590887887E+04  0.50400001928E-02 0. -1.
       -1   -1    0    0    0  501  0.00000000000E+00  0.00000000000E+00 -0.53295149529E+03  0.53295149531E+03  0.50400001928E-02 0.  1.
    10030    2    1    2    0    0  0.00000000000E+00  0.00000000000E+00  0.82613729342E+03  0.18920402840E+04  0.17021497022E+04 0.  0.
        4    1    3    3  502    0 -0.40332396943E+03 -0.72453147882E+01  0.12460739170E+04  0.13097421648E+04  0.12699999809E+01 0. -1.
       -4    1    3    3    0  502  0.40332396943E+03  0.72453147882E+01 -0.41993662356E+03  0.58229811919E+03  0.12699999809E+01 0.  1.
</event>
<event>
 5   0  0.1285639E-04  0.1701026E+04  0.7818609E-02  0.8760780E-01
        2   -1    0    0  501    0  0.00000000000E+00  0.00000000000E+00  0.68383842347E+03  0.68383842347E+03  0.25500000920E-02 0.  1.
       -2   -1    0    0    0  501  0.00000000000E+00  0.00000000000E+00 -0.10578112652E+04  0.10578112652E+04  0.25500000920E-02 0. -1.
    10030    2    1    2    0    0  0.00000000000E+00  0.00000000000E+00 -0.37397284175E+03  0.17416496887E+04  0.17010255588E+04 0.  0.
        4    1    3    3  502    0  0.66666780794E+03  0.19140870420E+03  0.31699569826E+03  0.76260811942E+03  0.12699999809E+01 0.  1.
       -4    1    3    3    0  502 -0.66666780794E+03 -0.19140870420E+03 -0.69096854001E+03  0.97904156928E+03  0.12699999809E+01 0. -1.
</event>
<event>
 5   0  0.1333546E-04  0.1702348E+04  0.7818609E-02  0.8760026E-01
        2   -1    0    0  501    0  0.00000000000E+00  0.00000000000E+00  0.13299225696E+04  0.13299225696E+04  0.25500000920E-02 0.  1.
       -2   -1    0    0    0  501  0.00000000000E+00  0.00000000000E+00 -0.54476670586E+03  0.54476670587E+03  0.25500000920E-02 0. -1.
    10030    2    1    2    0    0  0.00000000000E+00  0.00000000000E+00  0.78515586371E+03  0.18746892754E+04  0.17023484218E+04 0.  0.
        5    1    3    3  502    0  0.73328630082E+03 -0.12718879018E+03 -0.62260542628E+02  0.74684955144E+03  0.46999998093E+01 0. -1.
       -5    1    3    3    0  502 -0.73328630082E+03  0.12718879018E+03  0.84741640634E+03  0.11278397240E+04  0.46999998093E+01 0.  1.
</event>
<event>
 5   0  0.6564887E-05  0.1692070E+04  0.7818609E-02  0.8765900E-01
       -1   -1    0    0    0  501  0.00000000000E+00  0.00000000000E+00  0.45412590673E+03  0.45412590676E+03  0.50400001928E-02 0. -1.
        1   -1    0    0  501    0  0.00000000000E+00  0.00000000000E+00 -0.15761597676E+04  0.15761597677E+04  0.50400001928E-02 0.  1.
    10030    2    1    2    0    0  0.00000000000E+00  0.00000000000E+00 -0.11220338609E+04  0.20302856744E+04  0.16920697192E+04 0.  0.
        4    1    3    3  502    0  0.20618168449E+03 -0.40350022662E+03 -0.14182827783E+04  0.14889093230E+04  0.12699999809E+01 0.  1.
       -4    1    3    3    0  502 -0.20618168449E+03  0.40350022662E+03  0.29624891742E+03  0.54137635142E+03  0.12699999809E+01 0. -1.
</event>
<event>
 5   0  0.1285639E-04  0.1695562E+04  0.7818609E-02  0.8763900E-01
       -2   -1    0    0    0  501  0.00000000000E+00  0.00000000000E+00  0.96230460202E+03  0.96230460202E+03  0.25500000920E-02 0. -1.
        2   -1    0    0  501    0  0.00000000000E+00  0.00000000000E+00 -0.74688684194E+03  0.74688684194E+03  0.25500000920E-02 0.  1.
    10030    2    1    2    0    0  0.00000000000E+00  0.00000000000E+00  0.21541776008E+03  0.17091914440E+04  0.16955620250E+04 0.  0.
        4    1    3    3  502    0  0.33914850200E+03 -0.49995556959E+03  0.70726184866E+03  0.93016031599E+03  0.12699999809E+01 0. -1.
       -4    1    3    3    0  502 -0.33914850200E+03  0.49995556959E+03 -0.49184408858E+03  0.77903112797E+03  0.12699999809E+01 0.  1.
</event>
<event>
 5   0  0.1393870E-04  0.1698975E+04  0.7818609E-02  0.8761949E-01
        2   -1    0    0  501    0  0.00000000000E+00  0.00000000000E+00  0.79018623441E+03  0.79018623441E+03  0.25500000920E-02 0. -1.
       -2   -1    0    0    0  501  0.00000000000E+00  0.00000000000E+00 -0.91323960729E+03  0.91323960730E+03  0.25500000920E-02 0.  1.
    10030    2    1    2    0    0  0.00000000000E+00  0.00000000000E+00 -0.12305337289E+03  0.17034258417E+04  0.16989754164E+04 0.  0.
        3    1    3    3  502    0  0.42460446078E+03 -0.29653461668E+03  0.61359265198E+03  0.80294313607E+03  0.10100000352E+00 0. -1.
       -3    1    3    3    0  502 -0.42460446078E+03  0.29653461668E+03 -0.73664602486E+03  0.90048270564E+03  0.10100000352E+00 0.  1.
</event>
<event>
 5   0  0.6834837E-05  0.1703962E+04  0.7818609E-02  0.8759108E-01
       -1   -1    0    0    0  501  0.00000000000E+00  0.00000000000E+00  0.94999941495E+03  0.94999941497E+03  0.50400001928E-02 0. -1.
        1   -1    0    0  501    0  0.00000000000E+00  0.00000000000E+00 -0.76407618157E+03  0.76407618159E+03  0.50400001928E-02 0.  1.
    10030    2    1    2    0    0  0.00000000000E+00  0.00000000000E+00  0.18592323339E+03  0.17140755966E+04  0.17039623535E+04 0.  0.
        5    1    3    3  502    0 -0.67707835601E+03  0.49074575598E+03  0.25697328097E+03  0.87482789983E+03  0.46999998093E+01 0.  1.
       -5    1    3    3    0  502  0.67707835601E+03 -0.49074575598E+03 -0.71050047581E+02  0.83924769672E+03  0.46999998093E+01 0. -1.
</event>
<event>
 5   0  0.1269175E-04  0.1701785E+04  0.7818609E-02  0.8760347E-01
        2   -1    0    0  501    0  0.00000000000E+00  0.00000000000E+00  0.49342604815E+03  0.49342604816E+03  0.25500000920E-02 0. -1.
       -2   -1    0    0    0  501  0.00000000000E+00  0.00000000000E+00 -0.14673275827E+04  0.14673275827E+04  0.25500000920E-02 0.  1.
    10030    2    1    2    0    0  0.00000000000E+00  0.00000000000E+00 -0.97390153452E+03  0.19607536308E+04  0.17017845345E+04 0.  0.
        2    1    3    3  502    0  0.51685010044E+03  0.57723228770E+03 -0.81741262909E+02  0.77911024532E+03  0.25500000920E-02 0. -1.
       -2    1    3    3    0  502 -0.51685010044E+03 -0.57723228770E+03 -0.89216027161E+03  0.11816433855E+04  0.25500000920E-02 0.  1.
</event>
<event>
 5   0  0.4720875E-05  0.1697069E+04  0.7818609E-02  0.8763038E-01
        3   -1    0    0  501    0  0.00000000000E+00  0.00000000000E+00  0.78273780732E+03  0.78273781384E+03  0.10100000352E+00 0. -1.
       -3   -1    0    0    0  501  0.00000000000E+00  0.00000000000E+00 -0.91986193939E+03  0.91986194493E+03  0.10100000352E+00 0.  1.
    10030    2    1    2    0    0  0.00000000000E+00  0.00000000000E+00 -0.13712413206E+03  0.17025997588E+04  0.16970689176E+04 0.  0.
        4    1    3    3  502    0  0.92619229176E+01  0.79755823613E+03  0.22190558667E+03  0.82790616952E+03  0.12699999809E+01 0. -1.
       -4    1    3    3    0  502 -0.92619229176E+01 -0.79755823613E+03 -0.35902971874E+03  0.87469358925E+03  0.12699999809E+01 0.  1.
</event>
<event>
 5   0  0.1269175E-04  0.1700337E+04  0.7818609E-02  0.8761172E-01
       -2   -1    0    0    0  501  0.00000000000E+00  0.00000000000E+00  0.12679554245E+04  0.12679554245E+04  0.25500000920E-02 0. -1.
        2   -1    0    0  501    0  0.00000000000E+00  0.00000000000E+00 -0.57004125411E+03  0.57004125412E+03  0.25500000920E-02 0.  1.
    10030    2    1    2    0    0  0.00000000000E+00  0.00000000000E+00  0.69791417039E+03  0.18379966786E+04  0.17003374963E+04 0.  0.
        2    1    3    3  502    0  0.20051795199E+03  0.52850856977E+03 -0.33748067103E+03  0.65834790249E+03  0.25500000920E-02 0.  1.
       -2    1    3    3    0  502 -0.20051795199E+03 -0.52850856977E+03  0.10353948414E+04  0.11796487761E+04  0.25500000920E-02 0. -1.
</event>
<event>
 5   0  0.6615842E-05  0.1715702E+04  0.7818609E-02  0.8752459E-01
        1   -1    0    0  501    0  0.00000000000E+00  0.00000000000E+00  0.74409807210E+03  0.74409807212E+03  0.50400001928E-02 0.  1.
       -1   -1    0    0    0  501  0.00000000000E+00  0.00000000000E+00 -0.98899395613E+03  0.98899395615E+03  0.50400001928E-02 0. -1.
    10030    2    1    2    0    0  0.00000000000E+00  0.00000000000E+00 -0.24489588403E+03  0.17330920283E+04  0.17157021841E+04 0.  0.
        3    1    3    3  502    0  0.48108776530E+03  0.20932186890E+03 -0.80803724708E+03  0.96342373107E+03  0.10100000352E+00 0. -1.
       -3    1    3    3    0  502 -0.48108776530E+03 -0.20932186890E+03  0.56314136304E+03  0.76966829719E+03  0.10100000352E+00 0.  1.
</event>
<event>
 5   0  0.1393870E-04  0.1700957E+04  0.7818609E-02  0.8760819E-01
        2   -1    0    0  501    0  0.00000000000E+00  0.00000000000E+00  0.66139384691E+03  0.66139384691E+03  0.25500000920E-02 0. -1.
       -2   -1    0    0    0  501  0.00000000000E+00  0.00000000000E+00 -0.10936200297E+04  0.10936200297E+04  0.25500000920E-02 0.  1.
    10030    2    1    2    0    0  0.00000000000E+00  0.00000000000E+00 -0.43222618278E+03  0.17550138766E+04  0.17009568584E+04 0.  0.
        3    1    3    3  502    0  0.29016044862E+03 -0.72010261448E+01 -0.10409365390E+04  0.10806450986E+04  0.10100000352E+00 0.  1.
       -3    1    3    3    0  502 -0.29016044862E+03  0.72010261448E+01  0.60871035624E+03  0.67436877798E+03  0.10100000352E+00 0. -1.
</event>
<event>
 5   0  0.6564887E-05  0.1699336E+04  0.7818609E-02  0.8761743E-01
        1   -1    0    0  501    0  0.00000000000E+00  0.00000000000E+00  0.67145251184E+03  0.67145251186E+03  0.50400001928E-02 0.  1.
       -1   -1    0    0    0  501  0.00000000000E+00  0.00000000000E+00 -0.10751849974E+04  0.10751849974E+04  0.50400001928E-02 0. -1.
    10030    2    1    2    0    0  0.00000000000E+00  0.00000000000E+00 -0.40373248556E+03  0.17466375093E+04  0.16993359494E+04 0.  0.
        4    1    3    3  502    0 -0.36459283008E+02  0.83130012748E+03 -0.37853697201E+03  0.91415591304E+03  0.12699999809E+01 0.  1.
       -4    1    3    3    0  502  0.36459283008E+02 -0.83130012748E+03 -0.25195513552E+02  0.83248159623E+03  0.12699999809E+01 0. -1.
</event>
<event>
 5   0  0.6601906E-05  0.1697770E+04  0.7818609E-02  0.8762637E-01
       -1   -1    0    0    0  501  0.00000000000E+00  0.00000000000E+00  0.48857448837E+03  0.48857448839E+03  0.50400001928E-02 0. -1.
        1   -1    0    0  501    0  0.00000000000E+00  0.00000000000E+00 -0.14749139715E+04  0.14749139715E+04  0.50400001928E-02 0.  1.
    10030    2    1    2    0    0  0.00000000000E+00  0.00000000000E+00 -0.98633948315E+03  0.19634884599E+04  0.16977695239E+04 0.  0.
        1    1    3    3  502    0  0.96508018069E+02 -0.37806882749E+03 -0.13650556416E+04  0.14197276995E+04  0.50400001928E-02 0.  1.
       -1    1    3    3    0  502 -0.96508018069E+02  0.37806882749E+03  0.37871615849E+03  0.54376076044E+03  0.50400001928E-02 0. -1.
</event>
<event>
 5   0  0.1269175E-04  0.1704562E+04  0.7818609E-02  0.8758767E-01
        2   -1    0    0  501    0  0.00000000000E+00  0.00000000000E+00  0.11954567114E+04  0.11954567114E+04  0.25500000920E-02 0.  1.
       -2   -1    0    0    0  501  0.00000000000E+00  0.00000000000E+00 -0.60761923104E+03  0.60761923104E+03  0.25500000920E-02 0. -1.
    10030    2    1    2    0    0  0.00000000000E+00  0.00000000000E+00  0.58783748036E+03  0.18030759424E+04  0.17045615128E+04 0.  0.
        2    1    3    3  502    0 -0.16439803330E+03 -0.21341601567E+03  0.11492353651E+04  0.11803876624E+04  0.25500000920E-02 0.  1.
       -2    1    3    3    0  502  0.16439803330E+03  0.21341601567E+03 -0.56139788475E+03  0.62268828005E+03  0.25500000920E-02 0. -1.
</event>
<event>
 5   0  0.6615842E-05  0.1705908E+04  0.7818609E-02  0.8758002E-01
        1   -1    0    0  501    0  0.00000000000E+00  0.00000000000E+00  0.90519301785E+03  0.90519301787E+03  0.50400001928E-02 0. -1.
       -1   -1    0    0    0  501  0.00000000000E+00  0.00000000000E+00 -0.80372932091E+03  0.80372932092E+03  0.50400001928E-02 0.  1.
    10030    2    1    2    0    0  0.00000000000E+00  0.00000000000E+00  0.10146369694E+03  0.17089223388E+04  0.17059075820E+04 0.  0.
        3    1    3    3  502    0  0.27363772216E+03 -0.70542989922E+03 -0.34369129837E+03  0.83104311830E+03  0.10100000352E+00 0.  1.
       -3    1    3    3    0  502 -0.27363772216E+03  0.70542989922E+03  0.44515499531E+03  0.87787922048E+03  0.10100000352E+00 0. -1.
</event>
<event>
 5   0  0.1285639E-04  0.1703483E+04  0.7818609E-02  0.8759380E-01
       -2   -1    0    0    0  501  0.00000000000E+00  0.00000000000E+00  0.34097055443E+03  0.34097055444E+03  0.25500000920E-02 0. -1.
        2   -1    0    0  501    0  0.00000000000E+00  0.00000000000E+00 -0.21276433588E+04  0.21276433588E+04  0.25500000920E-02 0.  1.
    10030    2    1    2    0    0  0.00000000000E+00  0.00000000000E+00 -0.17866728044E+04  0.24686139132E+04  0.17034831795E+04 0.  0.
        4    1    3    3  502    0 -0.18836144676E+03 -0.23293636045E+02 -0.20966072694E+04  0.21051808195E+04  0.12699999809E+01 0.  1.
       -4    1    3    3    0  502  0.18836144676E+03  0.23293636045E+02  0.30993446499E+03  0.36343309370E+03  0.12699999809E+01 0. -1.
</event>
<event>
 5   0  0.1393870E-04  0.1702607E+04  0.7818609E-02  0.8759879E-01
        2   -1    0    0  501    0  0.00000000000E+00  0.00000000000E+00  0.10024541739E+04  0.10024541739E+04  0.25500000920E-02 0.  1.
       -2   -1    0    0    0  501  0.00000000000E+00  0.00000000000E+00 -0.72294319156E+03  0.72294319157E+03  0.25500000920E-02 0. -1.
    10030    2    1    2    0    0  0.00000000000E+00  0.00000000000E+00  0.27951098231E+03  0.17253973654E+04  0.17026067307E+04 0.  0.
        3    1    3    3  502    0 -0.53069574379E+03 -0.49029523042E+03 -0.31648200162E+03  0.78878910553E+03  0.10100000352E+00 0. -1.
       -3    1    3    3    0  502  0.53069574379E+03  0.49029523042E+03  0.59599298393E+03  0.93660825991E+03  0.10100000352E+00 0.  1.
</event>
<event>
 5   0  0.4720875E-05  0.1686019E+04  0.7818609E-02  0.8769378E-01
       -4   -1    0    0    0  501  0.00000000000E+00  0.00000000000E+00  0.71283828285E+03  0.71283941417E+03  0.12699999809E+01 0. -1.
        4   -1    0    0  501    0  0.00000000000E+00  0.00000000000E+00 -0.99694935013E+03  0.99695015905E+03  0.12699999809E+01 0.  1.
    10030    2    1    2    0    0  0.00000000000E+00  0.00000000000E+00 -0.28411106728E+03  0.17097895732E+04  0.16860193611E+04 0.  0.
        2    1    3    3  502    0 -0.59465688824E+03  0.41995042232E+03 -0.57312508305E+03  0.92652443722E+03  0.25500000920E-02 0. -1.
       -2    1    3    3    0  502  0.59465688824E+03 -0.41995042232E+03  0.28901401577E+03  0.78326513599E+03  0.25500000920E-02 0.  1.
</event>
<event>
 5   0  0.6564887E-05  0.1728538E+04  0.7818609E-02  0.8745253E-01
        1   -1    0    0  501    0  0.00000000000E+00  0.00000000000E+00  0.45474113357E+03  0.45474113360E+03  0.50400001928E-02 0. -1.
       -1   -1    0    0    0  501  0.00000000000E+00  0.00000000000E+00 -0.16426071966E+04  0.16426071966E+04  0.50400001928E-02 0.  1.
    10030    2    1    2    0    0  0.00000000000E+00  0.00000000000E+00 -0.11878660630E+04  0.20973483302E+04  0.17285381785E+04 0.  0.
        4    1    3    3  502    0  0.10295633774E+03 -0.97909929385E+02 -0.16283389713E+04  0.16345261638E+04  0.12699999809E+01 0.  1.
       -4    1    3    3    0  502 -0.10295633774E+03  0.97909929385E+02  0.44047290836E+03  0.46282216633E+03  0.12699999809E+01 0. -1.
</event>
<event>
 5   0  0.6615842E-05  0.1777716E+04  0.7818609E-02  0.8718240E-01
        1   -1    0    0  501    0  0.00000000000E+00  0.00000000000E+00  0.74680651511E+03  0.74680651512E+03  0.50400001928E-02 0.  1.
       -1   -1    0    0    0  501  0.00000000000E+00  0.00000000000E+00 -0.10579297666E+04  0.10579297666E+04  0.50400001928E-02 0. -1.
    10030    2    1    2    0    0  0.00000000000E+00  0.00000000000E+00 -0.31112325148E+03  0.18047362817E+04  0.17777163353E+04 0.  0.
        3    1    3    3  502    0 -0.32840460785E+03 -0.37424000101E+03 -0.90307073822E+03  0.10312332099E+04  0.10100000352E+00 0. -1.
       -3    1    3    3    0  502  0.32840460785E+03  0.37424000101E+03  0.59194748674E+03  0.77350307180E+03  0.10100000352E+00 0.  1.
</event>
<event>
 5   0  0.6834837E-05  0.1672799E+04  0.7818609E-02  0.8777032E-01
        1   -1    0    0  501    0  0.00000000000E+00  0.00000000000E+00  0.27376162865E+04  0.27376162865E+04  0.50400001928E-02 0. -1.
       -1   -1    0    0    0  501  0.00000000000E+00  0.00000000000E+00 -0.25553779138E+03  0.25553779143E+03  0.50400001928E-02 0.  1.
    10030    2    1    2    0    0  0.00000000000E+00  0.00000000000E+00  0.24820784951E+04  0.29931540780E+04  0.16727993539E+04 0.  0.
        5    1    3    3  502    0  0.66693050105E+03 -0.22049580208E+02  0.21432834845E+04  0.22447647231E+04  0.46999998093E+01 0. -1.
       -5    1    3    3    0  502 -0.66693050105E+03  0.22049580208E+02  0.33879501064E+03  0.74838935485E+03  0.46999998093E+01 0.  1.
</event>
<event>
 5   0  0.1285639E-04  0.1690314E+04  0.7818609E-02  0.8766908E-01
        2   -1    0    0  501    0  0.00000000000E+00  0.00000000000E+00  0.66179707581E+03  0.66179707582E+03  0.25500000920E-02 0. -1.
       -2   -1    0    0    0  501  0.00000000000E+00  0.00000000000E+00 -0.10793190078E+04  0.10793190078E+04  0.25500000920E-02 0.  1.
    10030    2    1    2    0    0  0.00000000000E+00  0.00000000000E+00 -0.41752193194E+03  0.17411160836E+04  0.16903137735E+04 0.  0.
        4    1    3    3  502    0  0.35254508850E+02 -0.29902042846E+03 -0.10221995166E+04  0.10656216785E+04  0.12699999809E+01 0.  1.
       -4    1    3    3    0  502 -0.35254508850E+02  0.29902042846E+03  0.60467758465E+03  0.67549440509E+03  0.12699999809E+01 0. -1.
</event>
<event>
 5   0  0.1255362E-04  0.1699305E+04  0.7818609E-02  0.8761761E-01
        2   -1    0    0  501    0  0.00000000000E+00  0.00000000000E+00  0.10411126899E+04  0.10411126899E+04  0.25500000920E-02 0.  1.
       -2   -1    0    0    0  501  0.00000000000E+00  0.00000000000E+00 -0.69340213411E+03  0.69340213411E+03  0.25500000920E-02 0. -1.
    10030    2    1    2    0    0  0.00000000000E+00  0.00000000000E+00  0.34771055581E+03  0.17345148240E+04  0.16993054593E+04 0.  0.
        1    1    3    3  502    0 -0.21940505593E+02 -0.72001407516E+03 -0.28604455711E+03  0.77506331541E+03  0.50400001928E-02 0. -1.
       -1    1    3    3    0  502  0.21940505593E+02  0.72001407516E+03  0.63375511292E+03  0.95945150862E+03  0.50400001928E-02 0.  1.
</event>
<event>
 5   0  0.1333546E-04  0.1705626E+04  0.7818609E-02  0.8758162E-01
       -2   -1    0    0    0  501  0.00000000000E+00  0.00000000000E+00  0.46173137315E+03  0.46173137316E+03  0.25500000920E-02 0. -1.
        2   -1    0    0  501    0  0.00000000000E+00  0.00000000000E+00 -0.15751357691E+04  0.15751357691E+04  0.25500000920E-02 0.  1.
    10030    2    1    2    0    0  0.00000000000E+00  0.00000000000E+00 -0.11134043960E+04  0.20368671423E+04  0.17056255176E+04 0.  0.
        5    1    3    3  502    0  0.85256307872E+03  0.17515285767E+02 -0.54494529888E+03  0.10120069452E+04  0.46999998093E+01 0. -1.
       -5    1    3    3    0  502 -0.85256307872E+03 -0.17515285767E+02 -0.56845909710E+03  0.10248601971E+04  0.46999998093E+01 0.  1.
</event>
<event>
 5   0  0.1285639E-04  0.1698874E+04  0.7818609E-02  0.8762007E-01
       -2   -1    0    0    0  501  0.00000000000E+00  0.00000000000E+00  0.90215819569E+03  0.90215819569E+03  0.25500000920E-02 0.  1.
        2   -1    0    0  501    0  0.00000000000E+00  0.00000000000E+00 -0.79979722071E+03  0.79979722071E+03  0.25500000920E-02 0. -1.
    10030    2    1    2    0    0  0.00000000000E+00  0.00000000000E+00  0.10236097498E+03  0.17019554164E+04  0.16988744716E+04 0.  0.
        4    1    3    3  502    0  0.30182016245E+02  0.63383176618E+03 -0.51454560615E+03  0.81695315388E+03  0.12699999809E+01 0. -1.
       -4    1    3    3    0  502 -0.30182016245E+02 -0.63383176618E+03  0.61690658113E+03  0.88500226252E+03  0.12699999809E+01 0.  1.
</event>
<event>
 5   0  0.1269175E-04  0.1691088E+04  0.7818609E-02  0.8766463E-01
       -2   -1    0    0    0  501  0.00000000000E+00  0.00000000000E+00  0.69160347424E+03  0.69160347425E+03  0.25500000920E-02 0. -1.
        2   -1    0    0  501    0  0.00000000000E+00  0.00000000000E+00 -0.10337497016E+04  0.10337497016E+04  0.25500000920E-02 0.  1.
    10030    2    1    2    0    0  0.00000000000E+00  0.00000000000E+00 -0.34214622735E+03  0.17253531758E+04  0.16910882711E+04 0.  0.
        2    1    3    3  502    0  0.66535359169E+03  0.46225685154E+03 -0.41798514210E+03  0.91164048714E+03  0.25500000920E-02 0.  1.
       -2    1    3    3    0  502 -0.66535359169E+03 -0.46225685154E+03  0.75838914747E+02  0.81371268871E+03  0.25500000920E-02 0. -1.
</event>
<event>
 5   0  0.1333546E-04  0.1706678E+04  0.7818609E-02  0.8757565E-01
        2   -1    0    0  501    0  0.00000000000E+00  0.00000000000E+00  0.81416656880E+03  0.81416656880E+03  0.25500000920E-02 0. -1.
       -2   -1    0    0    0  501  0.00000000000E+00  0.00000000000E+00 -0.89439665939E+03  0.89439665939E+03  0.25500000920E-02 0.  1.
    10030    2    1    2    0    0  0.00000000000E+00  0.00000000000E+00 -0.80230090589E+02  0.17085632282E+04  0.17066784809E+04 0.  0.
        5    1    3    3  502    0  0.50002453745E+03 -0.62846752947E+03  0.24859517620E+03  0.84072446453E+03  0.46999998093E+01 0. -1.
       -5    1    3    3    0  502 -0.50002453745E+03  0.62846752947E+03 -0.32882526678E+03  0.86783876366E+03  0.46999998093E+01 0.  1.
</event>
<event>
 5   0  0.1333546E-04  0.1690460E+04  0.7818609E-02  0.8766824E-01
       -2   -1    0    0    0  501  0.00000000000E+00  0.00000000000E+00  0.57840605116E+03  0.57840605117E+03  0.25500000920E-02 0. -1.
        2   -1    0    0  501    0  0.00000000000E+00  0.00000000000E+00 -0.12351428380E+04  0.12351428380E+04  0.25500000920E-02 0.  1.
    10030    2    1    2    0    0  0.00000000000E+00  0.00000000000E+00 -0.65673678687E+03  0.18135488892E+04  0.16904604007E+04 0.  0.
        5    1    3    3  502    0  0.76287579332E+03 -0.24313825467E+03 -0.37922436564E+02  0.80159583838E+03  0.46999998093E+01 0. -1.
       -5    1    3    3    0  502 -0.76287579332E+03  0.24313825467E+03 -0.61881435031E+03  0.10119530508E+04  0.46999998093E+01 0.  1.
</event>
<event>
 5   0  0.6539134E-05  0.1706595E+04  0.7818609E-02  0.8757612E-01
        1   -1    0    0  501    0  0.00000000000E+00  0.00000000000E+00  0.98633677925E+03  0.98633677926E+03  0.50400001928E-02 0. -1.
       -1   -1    0    0    0  501  0.00000000000E+00  0.00000000000E+00 -0.73820282830E+03  0.73820282832E+03  0.50400001928E-02 0.  1.
    10030    2    1    2    0    0  0.00000000000E+00  0.00000000000E+00  0.24813395095E+03  0.17245396076E+04  0.17065949726E+04 0.  0.
        2    1    3    3  502    0 -0.14849838625E+03 -0.15037839137E+03 -0.71133684419E+03  0.74206841815E+03  0.25500000920E-02 0.  1.
       -2    1    3    3    0  502  0.14849838625E+03  0.15037839137E+03  0.95947079514E+03  0.98247118943E+03  0.25500000920E-02 0. -1.
</event>
<event>
 5   0  0.6539134E-05  0.1696697E+04  0.7818609E-02  0.8763251E-01
       -1   -1    0    0    0  501  0.00000000000E+00  0.00000000000E+00  0.51928847389E+03  0.51928847392E+03  0.50400001928E-02 0.  1.
        1   -1    0    0  501    0  0.00000000000E+00  0.00000000000E+00 -0.13859252555E+04  0.13859252555E+04  0.50400001928E-02 0. -1.
    10030    2    1    2    0    0  0.00000000000E+00  0.00000000000E+00 -0.86663678159E+03  0.19052137294E+04  0.16966968037E+04 0.  0.
        2    1    3    3  502    0  0.66644247623E+03  0.50869581165E+03 -0.28786975276E+03  0.88644571039E+03  0.25500000920E-02 0. -1.
       -2    1    3    3    0  502 -0.66644247623E+03 -0.50869581165E+03 -0.57876702883E+03  0.10187680190E+04  0.25500000920E-02 0.  1.
</event>
<event>
 5   0  0.6539134E-05  0.1700038E+04  0.7818609E-02  0.8761342E-01
        1   -1    0    0  501    0  0.00000000000E+00  0.00000000000E+00  0.67528384831E+03  0.67528384833E+03  0.50400001928E-02 0.  1.
       -1   -1    0    0    0  501  0.00000000000E+00  0.00000000000E+00 -0.10699688546E+04  0.10699688547E+04  0.50400001928E-02 0. -1.
    10030    2    1    2    0    0  0.00000000000E+00  0.00000000000E+00 -0.39468500633E+03  0.17452527030E+04  0.17000384534E+04 0.  0.
        2    1    3    3  502    0  0.54511928725E+03 -0.64892132012E+03 -0.26449450766E+03  0.88781262754E+03  0.25500000920E-02 0. -1.
       -2    1    3    3    0  502 -0.54511928725E+03  0.64892132012E+03 -0.13019049867E+03  0.85744007545E+03  0.25500000920E-02 0.  1.
</event>
<event>
 5   0  0.6834837E-05  0.1697414E+04  0.7818609E-02  0.8762841E-01
        1   -1    0    0  501    0  0.00000000000E+00  0.00000000000E+00  0.16061368816E+04  0.16061368817E+04  0.50400001928E-02 0.  1.
       -1   -1    0    0    0  501  0.00000000000E+00  0.00000000000E+00 -0.44846953461E+03  0.44846953464E+03  0.50400001928E-02 0. -1.
    10030    2    1    2    0    0  0.00000000000E+00  0.00000000000E+00  0.11576673470E+04  0.20546064163E+04  0.16974138681E+04 0.  0.
        5    1    3    3  502    0  0.61321405662E+02 -0.26932273298E+03 -0.39252408883E+03  0.47999197869E+03  0.46999998093E+01 0. -1.
       -5    1    3    3    0  502 -0.61321405662E+02  0.26932273298E+03  0.15501914359E+04  0.15746144376E+04  0.46999998093E+01 0.  1.
</event>
<event>
 5   0  0.1393870E-04  0.1697306E+04  0.7818609E-02  0.8762902E-01
        2   -1    0    0  501    0  0.00000000000E+00  0.00000000000E+00  0.15576741998E+04  0.15576741998E+04  0.25500000920E-02 0.  1.
       -2   -1    0    0    0  501  0.00000000000E+00  0.00000000000E+00 -0.46236381012E+03  0.46236381013E+03  0.25500000920E-02 0. -1.
    10030    2    1    2    0    0  0.00000000000E+00  0.00000000000E+00  0.10953103897E+04  0.20200380099E+04  0.16973063105E+04 0.  0.
        3    1    3    3  502    0 -0.23812579550E+03  0.70424740793E+03  0.10348061698E+04  0.12741633040E+04  0.10100000352E+00 0. -1.
       -3    1    3    3    0  502  0.23812579550E+03 -0.70424740793E+03  0.60504219869E+02  0.74587470589E+03  0.10100000352E+00 0.  1.
</event>
<event>
 5   0  0.6601906E-05  0.1700498E+04  0.7818609E-02  0.8761080E-01
        1   -1    0    0  501    0  0.00000000000E+00  0.00000000000E+00  0.52874236170E+03  0.52874236172E+03  0.50400001928E-02 0. -1.
       -1   -1    0    0    0  501  0.00000000000E+00  0.00000000000E+00 -0.13672513633E+04  0.13672513633E+04  0.50400001928E-02 0.  1.
    10030    2    1    2    0    0  0.00000000000E+00  0.00000000000E+00 -0.83850900158E+03  0.18959937250E+04  0.17004984150E+04 0.  0.
        1    1    3    3  502    0  0.14907649962E+03 -0.20413803792E+03 -0.13243876218E+04  0.13482947430E+04  0.50400001928E-02 0.  1.
       -1    1    3    3    0  502 -0.14907649962E+03  0.20413803792E+03  0.48587862021E+03  0.54769898199E+03  0.50400001928E-02 0. -1.
</event>
<event>
 5   0  0.6539134E-05  0.1697384E+04  0.7818609E-02  0.8762858E-01
       -1   -1    0    0    0  501  0.00000000000E+00  0.00000000000E+00  0.31379285138E+03  0.31379285142E+03  0.50400001928E-02 0.  1.
        1   -1    0    0  501    0  0.00000000000E+00  0.00000000000E+00 -0.22953926793E+04  0.22953926793E+04  0.50400001928E-02 0. -1.
    10030    2    1    2    0    0  0.00000000000E+00  0.00000000000E+00 -0.19815998279E+04  0.26091855307E+04  0.16973836501E+04 0.  0.
        2    1    3    3  502    0 -0.78263876486E+03  0.26195783075E+03 -0.68671589838E+03  0.10736498808E+04  0.25500000920E-02 0.  1.
       -2    1    3    3    0  502  0.78263876486E+03 -0.26195783075E+03 -0.12948839295E+04  0.15355356500E+04  0.25500000920E-02 0. -1.
</event>
<event>
 5   0  0.6834837E-05  0.1709334E+04  0.7818609E-02  0.8756058E-01
       -1   -1    0    0    0  501  0.00000000000E+00  0.00000000000E+00  0.13509894443E+04  0.13509894443E+04  0.50400001928E-02 0.  1.
        1   -1    0    0  501    0  0.00000000000E+00  0.00000000000E+00 -0.54068227920E+03  0.54068227923E+03  0.50400001928E-02 0. -1.
    10030    2    1    2    0    0  0.00000000000E+00  0.00000000000E+00  0.81030716508E+03  0.18916717235E+04  0.17093344342E+04 0.  0.
        5    1    3    3  502    0 -0.61478463365E+03  0.52809929261E+03  0.70535534662E+03  0.10744288081E+04  0.46999998093E+01 0.  1.
       -5    1    3    3    0  502  0.61478463365E+03 -0.52809929261E+03  0.10495181846E+03  0.81724291544E+03  0.46999998093E+01 0. -1.
</event>
<event>
 5   0  0.1269175E-04  0.1701567E+04  0.7818609E-02  0.8760471E-01
       -2   -1    0    0    0  501  0.00000000000E+00  0.00000000000E+00  0.42343187476E+03  0.42343187477E+03  0.25500000920E-02 0.  1.
        2   -1    0    0  501    0  0.00000000000E+00  0.00000000000E+00 -0.17094432133E+04  0.17094432133E+04  0.25500000920E-02 0. -1.
    10030    2    1    2    0    0  0.00000000000E+00  0.00000000000E+00 -0.12860113385E+04  0.21328750880E+04  0.17015672124E+04 0.  0.
        2    1    3    3  502    0  0.19351886583E+03 -0.35498949720E+03 -0.15813280300E+04  0.16321965056E+04  0.25500000920E-02 0. -1.
       -2    1    3    3    0  502 -0.19351886583E+03  0.35498949720E+03  0.29531669152E+03  0.50067858237E+03  0.25500000920E-02 0.  1.
</event>
<event>
 5   0  0.1285639E-04  0.1703877E+04  0.7818609E-02  0.8759156E-01
        2   -1    0    0  501    0  0.00000000000E+00  0.00000000000E+00  0.63938342224E+03  0.63938342225E+03  0.25500000920E-02 0.  1.
       -2   -1    0    0    0  501  0.00000000000E+00  0.00000000000E+00 -0.11351547359E+04  0.11351547359E+04  0.25500000920E-02 0. -1.
    10030    2    1    2    0    0  0.00000000000E+00  0.00000000000E+00 -0.49577131367E+03  0.17745381582E+04  0.17038768968E+04 0.  0.
        4    1    3    3  502    0  0.49313765939E+03  0.53293778318E+03  0.21622965668E+03  0.75760432230E+03  0.12699999809E+01 0.  1.
       -4    1    3    3    0  502 -0.49313765939E+03 -0.53293778318E+03 -0.71200097034E+03  0.10169338359E+04  0.12699999809E+01 0. -1.
</event>
<event>
 5   0  0.6615842E-05  0.1692613E+04  0.7818609E-02  0.8765589E-01
        1   -1    0    0  501    0  0.00000000000E+00  0.00000000000E+00  0.95510003682E+03  0.95510003683E+03  0.50400001928E-02 0.  1.
       -1   -1    0    0    0  501  0.00000000000E+00  0.00000000000E+00 -0.74990538379E+03  0.74990538380E+03  0.50400001928E-02 0. -1.
    10030    2    1    2    0    0  0.00000000000E+00  0.00000000000E+00  0.20519465303E+03  0.17050054206E+04  0.16926129619E+04 0.  0.
        3    1    3    3  502    0  0.54164456619E+03  0.54665968169E+03 -0.25214435843E+03  0.80981012056E+03  0.10100000352E+00 0. -1.
       -3    1    3    3    0  502 -0.54164456619E+03 -0.54665968169E+03  0.45733901146E+03  0.89519530007E+03  0.10100000352E+00 0.  1.
</event>
<event>
 5   0  0.1269175E-04  0.1697687E+04  0.7818609E-02  0.8762685E-01
       -2   -1    0    0    0  501  0.00000000000E+00  0.00000000000E+00  0.67734201665E+03  0.67734201665E+03  0.25500000920E-02 0.  1.
        2   -1    0    0  501    0  0.00000000000E+00  0.00000000000E+00 -0.10637685452E+04  0.10637685453E+04  0.25500000920E-02 0. -1.
    10030    2    1    2    0    0  0.00000000000E+00  0.00000000000E+00 -0.38642652860E+03  0.17411105619E+04  0.16976868165E+04 0.  0.
        2    1    3    3  502    0  0.36005731184E+02 -0.35422070104E+01  0.67655091021E+03  0.67751759684E+03  0.25500000920E-02 0.  1.
       -2    1    3    3    0  502 -0.36005731184E+02  0.35422070104E+01 -0.10629774388E+04  0.10635929651E+04  0.25500000920E-02 0. -1.
</event>
<event>
 5   0  0.6834837E-05  0.1698078E+04  0.7818609E-02  0.8762461E-01
        1   -1    0    0  501    0  0.00000000000E+00  0.00000000000E+00  0.10702945008E+04  0.10702945008E+04  0.50400001928E-02 0.  1.
       -1   -1    0    0    0  501  0.00000000000E+00  0.00000000000E+00 -0.67352215604E+03  0.67352215606E+03  0.50400001928E-02 0. -1.
    10030    2    1    2    0    0  0.00000000000E+00  0.00000000000E+00  0.39677234476E+03  0.17438166569E+04  0.16980778072E+04 0.  0.
        5    1    3    3  502    0  0.59132748620E+03  0.60293701844E+03  0.28816951738E+03  0.89233682256E+03  0.46999998093E+01 0. -1.
       -5    1    3    3    0  502 -0.59132748620E+03 -0.60293701844E+03  0.10860282739E+03  0.85147983432E+03  0.46999998093E+01 0.  1.
</event>
<event>
 5   0  0.6564887E-05  0.1693148E+04  0.7818609E-02  0.8765282E-01
        1   -1    0    0  501    0  0.00000000000E+00  0.00000000000E+00  0.66845078827E+03  0.66845078829E+03  0.50400001928E-02 0.  1.
       -1   -1    0    0    0  501  0.00000000000E+00  0.00000000000E+00 -0.10721617564E+04  0.10721617564E+04  0.50400001928E-02 0. -1.
    10030    2    1    2    0    0  0.00000000000E+00  0.00000000000E+00 -0.40371096813E+03  0.17406125447E+04  0.16931478036E+04 0.  0.
        4    1    3    3  502    0  0.72928763241E+03 -0.23073504125E+03  0.17106234737E+03  0.78381314715E+03  0.12699999809E+01 0.  1.
       -4    1    3    3    0  502 -0.72928763241E+03  0.23073504125E+03 -0.57477331551E+03  0.95679939756E+03  0.12699999809E+01 0. -1.
</event>
<event>
 5   0  0.6539134E-05  0.1703492E+04  0.7818609E-02  0.8759375E-01
        1   -1    0    0  501    0  0.00000000000E+00  0.00000000000E+00  0.13223109825E+04  0.13223109826E+04  0.50400001928E-02 0.  1.
       -1   -1    0    0    0  501  0.00000000000E+00  0.00000000000E+00 -0.54863896947E+03  0.54863896949E+03  0.50400001928E-02 0. -1.
    10030    2    1    2    0    0  0.00000000000E+00  0.00000000000E+00  0.77367201308E+03  0.18709499521E+04  0.17034921013E+04 0.  0.
        2    1    3    3  502    0 -0.47385507923E+02  0.80190441192E+03  0.69782301136E+03  0.10640737885E+04  0.25500000920E-02 0. -1.
       -2    1    3    3    0  502  0.47385507923E+02 -0.80190441192E+03  0.75849001720E+02  0.80687616354E+03  0.25500000920E-02 0.  1.
</event>
<event>
 5   0  0.6834837E-05  0.1698027E+04  0.7818609E-02  0.8762491E-01
       -1   -1    0    0    0  501  0.00000000000E+00  0.00000000000E+00  0.85772074144E+03  0.85772074145E+03  0.50400001928E-02 0. -1.
        1   -1    0    0  501    0  0.00000000000E+00  0.00000000000E+00 -0.84039452023E+03  0.84039452025E+03  0.50400001928E-02 0.  1.
    10030    2    1    2    0    0  0.00000000000E+00  0.00000000000E+00  0.17326221205E+02  0.16981152617E+04  0.16980268679E+04 0.  0.
        5    1    3    3  502    0  0.93172789001E+02 -0.83215455094E+03 -0.13148467046E+03  0.84762767406E+03  0.46999998093E+01 0.  1.
       -5    1    3    3    0  502 -0.93172789001E+02  0.83215455094E+03  0.14881089167E+03  0.85048758764E+03  0.46999998093E+01 0. -1.
</event>
<event>
 5   0  0.6601906E-05  0.1703862E+04  0.7818609E-02  0.8759165E-01
        1   -1    0    0  501    0  0.00000000000E+00  0.00000000000E+00  0.10364236078E+04  0.10364236079E+04  0.50400001928E-02 0. -1.
       -1   -1    0    0    0  501  0.00000000000E+00  0.00000000000E+00 -0.70027932682E+03  0.70027932684E+03  0.50400001928E-02 0.  1.
    10030    2    1    2    0    0  0.00000000000E+00  0.00000000000E+00  0.33614428102E+03  0.17367029347E+04  0.17038615277E+04 0.  0.
        1    1    3    3  502    0 -0.61478114143E+03 -0.42556830590E+03 -0.24811381974E+03  0.78779737396E+03  0.50400001928E-02 0.  1.
       -1    1    3    3    0  502  0.61478114143E+03  0.42556830590E+03  0.58425810076E+03  0.94890556073E+03  0.50400001928E-02 0. -1.
</event>
<event>
 5   0  0.1393870E-04  0.1704060E+04  0.7818609E-02  0.8759052E-01
        2   -1    0    0  501    0  0.00000000000E+00  0.00000000000E+00  0.15353849627E+04  0.15353849627E+04  0.25500000920E-02 0. -1.
       -2   -1    0    0    0  501  0.00000000000E+00  0.00000000000E+00 -0.47281644409E+03  0.47281644410E+03  0.25500000920E-02 0.  1.
    10030    2    1    2    0    0  0.00000000000E+00  0.00000000000E+00  0.10625685186E+04  0.20082014068E+04  0.17040601613E+04 0.  0.
        3    1    3    3  502    0 -0.26436218298E+03  0.77329422841E+03  0.24726335525E+03  0.85382111975E+03  0.10100000352E+00 0. -1.
       -3    1    3    3    0  502  0.26436218298E+03 -0.77329422841E+03  0.81530516332E+03  0.11543802870E+04  0.10100000352E+00 0.  1.
</event>
<event>
 5   0  0.1393870E-04  0.1719896E+04  0.7818609E-02  0.8750097E-01
        2   -1    0    0  501    0  0.00000000000E+00  0.00000000000E+00  0.10431294287E+04  0.10431294287E+04  0.25500000920E-02 0.  1.
       -2   -1    0    0    0  501  0.00000000000E+00  0.00000000000E+00 -0.70893488399E+03  0.70893488399E+03  0.25500000920E-02 0. -1.
    10030    2    1    2    0    0  0.00000000000E+00  0.00000000000E+00  0.33419454471E+03  0.17520643127E+04  0.17198963231E+04 0.  0.
        3    1    3    3  502    0  0.75797314576E+01 -0.42353278950E+03  0.92947505470E+03  0.10214506173E+04  0.10100000352E+00 0.  1.
       -3    1    3    3    0  502 -0.75797314576E+01  0.42353278950E+03 -0.59528050998E+03  0.73061369538E+03  0.10100000352E+00 0. -1.
</event>
<event>
 5   0  0.6834837E-05  0.1703689E+04  0.7818609E-02  0.8759263E-01
       -1   -1    0    0    0  501  0.00000000000E+00  0.00000000000E+00  0.35998860347E+03  0.35998860350E+03  0.50400001928E-02 0.  1.
        1   -1    0    0  501    0  0.00000000000E+00  0.00000000000E+00 -0.20157290168E+04  0.20157290168E+04  0.50400001928E-02 0. -1.
    10030    2    1    2    0    0  0.00000000000E+00  0.00000000000E+00 -0.16557404133E+04  0.23757176203E+04  0.17036894949E+04 0.  0.
        5    1    3    3  502    0 -0.10769250733E+03  0.64878200756E+03 -0.15828120174E+04  0.17140104265E+04  0.46999998093E+01 0. -1.
       -5    1    3    3    0  502  0.10769250733E+03 -0.64878200756E+03 -0.72928395902E+02  0.66170719386E+03  0.46999998093E+01 0.  1.
</event>
<event>
 5   0  0.6615842E-05  0.1700347E+04  0.7818609E-02  0.8761166E-01
       -1   -1    0    0    0  501  0.00000000000E+00  0.00000000000E+00  0.10680901580E+04  0.10680901580E+04  0.50400001928E-02 0. -1.
        1   -1    0    0  501    0  0.00000000000E+00  0.00000000000E+00 -0.67671751586E+03  0.67671751588E+03  0.50400001928E-02 0.  1.
    10030    2    1    2    0    0  0.00000000000E+00  0.00000000000E+00  0.39137264211E+03  0.17448076739E+04  0.17003473980E+04 0.  0.
        3    1    3    3  502    0 -0.39742290731E+03 -0.11167543640E+03 -0.56696926718E+03  0.70133482053E+03  0.10100000352E+00 0.  1.
       -3    1    3    3    0  502  0.39742290731E+03  0.11167543640E+03  0.95834190929E+03  0.10434728533E+04  0.10100000352E+00 0. -1.
</event>
<event>
 5   0  0.6615842E-05  0.1702449E+04  0.7818609E-02  0.8759969E-01
       -1   -1    0    0    0  501  0.00000000000E+00  0.00000000000E+00  0.37730702363E+03  0.37730702366E+03  0.50400001928E-02 0. -1.
        1   -1    0    0  501    0  0.00000000000E+00  0.00000000000E+00 -0.19204063333E+04  0.19204063333E+04  0.50400001928E-02 0.  1.
    10030    2    1    2    0    0  0.00000000000E+00  0.00000000000E+00 -0.15430993096E+04  0.22977133569E+04  0.17024485870E+04 0.  0.
        3    1    3    3  502    0 -0.23619465223E+02 -0.46344660861E+03  0.19157835850E+03  0.50203875928E+03  0.10100000352E+00 0. -1.
       -3    1    3    3    0  502  0.23619465223E+02  0.46344660861E+03 -0.17346776681E+04  0.17956745976E+04  0.10100000352E+00 0.  1.
</event>
<event>
 5   0  0.1269175E-04  0.1698914E+04  0.7818609E-02  0.8761984E-01
       -2   -1    0    0    0  501  0.00000000000E+00  0.00000000000E+00  0.34547622434E+03  0.34547622435E+03  0.25500000920E-02 0. -1.
        2   -1    0    0  501    0  0.00000000000E+00  0.00000000000E+00 -0.20886457968E+04  0.20886457968E+04  0.25500000920E-02 0.  1.
    10030    2    1    2    0    0  0.00000000000E+00  0.00000000000E+00 -0.17431695724E+04  0.24341220211E+04  0.16989143167E+04 0.  0.
        2    1    3    3  502    0 -0.20077902420E+03  0.75144953164E+03 -0.13607993485E+04  0.15674066103E+04  0.25500000920E-02 0.  1.
       -2    1    3    3    0  502  0.20077902420E+03 -0.75144953164E+03 -0.38237022390E+03  0.86671541078E+03  0.25500000920E-02 0. -1.
</event>
<event>
 5   0  0.1269175E-04  0.1692637E+04  0.7818609E-02  0.8765575E-01
       -2   -1    0    0    0  501  0.00000000000E+00  0.00000000000E+00  0.53718929187E+03  0.53718929187E+03  0.25500000920E-02 0. -1.
        2   -1    0    0  501    0  0.00000000000E+00  0.00000000000E+00 -0.13333380106E+04  0.13333380106E+04  0.25500000920E-02 0.  1.
    10030    2    1    2    0    0  0.00000000000E+00  0.00000000000E+00 -0.79614871876E+03  0.18705273025E+04  0.16926368799E+04 0.  0.
        2    1    3    3  502    0  0.65416229438E+03 -0.42501331884E+03 -0.35423683082E+02  0.78090938393E+03  0.25500000920E-02 0.  1.
       -2    1    3    3    0  502 -0.65416229438E+03  0.42501331884E+03 -0.76072503568E+03  0.10896179186E+04  0.25500000920E-02 0. -1.
</event>
<event>
 5   0  0.6564887E-05  0.1706938E+04  0.7818609E-02  0.8757417E-01
       -1   -1    0    0    0  501  0.00000000000E+00  0.00000000000E+00  0.63413442029E+03  0.63413442031E+03  0.50400001928E-02 0. -1.
        1   -1    0    0  501    0  0.00000000000E+00  0.00000000000E+00 -0.11486672053E+04  0.11486672053E+04  0.50400001928E-02 0.  1.
    10030    2    1    2    0    0  0.00000000000E+00  0.00000000000E+00 -0.51453278501E+03  0.17828016256E+04  0.17069380919E+04 0.  0.
        4    1    3    3  502    0  0.18305288896E+03  0.72691773442E+03  0.16890018699E+03  0.76840525690E+03  0.12699999809E+01 0. -1.
       -4    1    3    3    0  502 -0.18305288896E+03 -0.72691773442E+03 -0.68343297200E+03  0.10143963687E+04  0.12699999809E+01 0.  1.
</event>
<event>
 5   0  0.1255362E-04  0.1660324E+04  0.7818609E-02  0.8784322E-01
        2   -1    0    0  501    0  0.00000000000E+00  0.00000000000E+00  0.11455548567E+04  0.11455548567E+04  0.25500000920E-02 0. -1.
       -2   -1    0    0    0  501  0.00000000000E+00  0.00000000000E+00 -0.60160243066E+03  0.60160243067E+03  0.25500000920E-02 0.  1.
    10030    2    1    2    0    0  0.00000000000E+00  0.00000000000E+00  0.54395242599E+03  0.17471572873E+04  0.16603235663E+04 0.  0.
        1    1    3    3  502    0  0.22122440782E+03 -0.42402729472E+03  0.98601318786E+03  0.10958838405E+04  0.50400001928E-02 0. -1.
       -1    1    3    3    0  502 -0.22122440782E+03  0.42402729472E+03 -0.44206076187E+03  0.65127344679E+03  0.50400001928E-02 0.  1.
</event>
<event>
 5   0  0.4720875E-05  0.1703028E+04  0.7818609E-02  0.8759639E-01
        4   -1    0    0  501    0  0.00000000000E+00  0.00000000000E+00  0.60483315405E+03  0.60483448739E+03  0.12699999809E+01 0. -1.
       -4   -1    0    0    0  501  0.00000000000E+00  0.00000000000E+00 -0.11988000826E+04  0.11988007553E+04  0.12699999809E+01 0.  1.
    10030    2    1    2    0    0  0.00000000000E+00  0.00000000000E+00 -0.59396692859E+03  0.18036352427E+04  0.17030277087E+04 0.  0.
        2    1    3    3  502    0  0.42577649005E+03  0.19134626189E+03  0.45725157124E+03  0.65343554451E+03  0.25500000920E-02 0. -1.
       -2    1    3    3    0  502 -0.42577649005E+03 -0.19134626189E+03 -0.10512184998E+04  0.11501996982E+04  0.25500000920E-02 0.  1.
</event>
<event>
 5   0  0.4720875E-05  0.1700913E+04  0.7818609E-02  0.8760844E-01
        4   -1    0    0  501    0  0.00000000000E+00  0.00000000000E+00  0.72871177304E+03  0.72871287972E+03  0.12699999809E+01 0. -1.
       -4   -1    0    0    0  501  0.00000000000E+00  0.00000000000E+00 -0.99253898274E+03  0.99253979525E+03  0.12699999809E+01 0.  1.
    10030    2    1    2    0    0  0.00000000000E+00  0.00000000000E+00 -0.26382720970E+03  0.17212526750E+04  0.17009132766E+04 0.  0.
        2    1    3    3  502    0  0.59686331826E+03  0.22884707972E+03  0.43573949044E+03  0.77361858180E+03  0.25500000920E-02 0. -1.
       -2    1    3    3    0  502 -0.59686331826E+03 -0.22884707972E+03 -0.69956670014E+03  0.94763409316E+03  0.25500000920E-02 0.  1.
</event>
<event>
 5   0  0.1269175E-04  0.1680186E+04  0.7818609E-02  0.8772746E-01
       -2   -1    0    0    0  501  0.00000000000E+00  0.00000000000E+00  0.98063937186E+03  0.98063937186E+03  0.25500000920E-02 0. -1.
        2   -1    0    0  501    0  0.00000000000E+00  0.00000000000E+00 -0.71969019218E+03  0.71969019218E+03  0.25500000920E-02 0.  1.
    10030    2    1    2    0    0  0.00000000000E+00  0.00000000000E+00  0.26094917968E+03  0.17003295640E+04  0.16801863444E+04 0.  0.
        2    1    3    3  502    0 -0.18020345860E+03 -0.40325515254E+03 -0.59270340780E+03  0.73917882422E+03  0.25500000920E-02 0.  1.
       -2    1    3    3    0  502  0.18020345860E+03  0.40325515254E+03  0.85365258748E+03  0.96115073982E+03  0.25500000920E-02 0. -1.
</event>
<event>
 5   0  0.6834837E-05  0.1687482E+04  0.7818609E-02  0.8768536E-01
       -1   -1    0    0    0  501  0.00000000000E+00  0.00000000000E+00  0.14135078017E+04  0.14135078017E+04  0.50400001928E-02 0. -1.
        1   -1    0    0  501    0  0.00000000000E+00  0.00000000000E+00 -0.50363975330E+03  0.50363975333E+03  0.50400001928E-02 0.  1.
    10030    2    1    2    0    0  0.00000000000E+00  0.00000000000E+00  0.90986804842E+03  0.19171475551E+04  0.16874818169E+04 0.  0.
        5    1    3    3  502    0  0.25062378619E+03 -0.80555847343E+03  0.44149658861E+03  0.95219644195E+03  0.46999998093E+01 0.  1.
       -5    1    3    3    0  502 -0.25062378619E+03  0.80555847343E+03  0.46837145981E+03  0.96495111310E+03  0.46999998093E+01 0. -1.
</event>
<event>
 5   0  0.1393870E-04  0.1697425E+04  0.7818609E-02  0.8762834E-01
       -2   -1    0    0    0  501  0.00000000000E+00  0.00000000000E+00  0.58324391165E+03  0.58324391166E+03  0.25500000920E-02 0. -1.
        2   -1    0    0  501    0  0.00000000000E+00  0.00000000000E+00 -0.12350114075E+04  0.12350114075E+04  0.25500000920E-02 0.  1.
    10030    2    1    2    0    0  0.00000000000E+00  0.00000000000E+00 -0.65176749583E+03  0.18182553191E+04  0.16974249724E+04 0.  0.
        3    1    3    3  502    0 -0.35958900660E+03 -0.10779905350E+03 -0.11412430340E+04  0.12013994184E+04  0.10100000352E+00 0.  1.
       -3    1    3    3    0  502  0.35958900660E+03  0.10779905350E+03  0.48947553819E+03  0.61685590075E+03  0.10100000352E+00 0. -1.
</event>
<event>
 5   0  0.6615842E-05  0.1764913E+04  0.7818609E-02  0.8725184E-01
       -1   -1    0    0    0  501  0.00000000000E+00  0.00000000000E+00  0.61052487680E+03  0.61052487682E+03  0.50400001928E-02 0. -1.
        1   -1    0    0  501    0  0.00000000000E+00  0.00000000000E+00 -0.12755075205E+04  0.12755075205E+04  0.50400001928E-02 0.  1.
    10030    2    1    2    0    0  0.00000000000E+00  0.00000000000E+00 -0.66498264374E+03  0.18860323974E+04  0.17649125438E+04 0.  0.
        3    1    3    3  502    0  0.58885437485E+02 -0.79486476133E+03 -0.73723364853E+03  0.10857213944E+04  0.10100000352E+00 0.  1.
       -3    1    3    3    0  502 -0.58885437485E+02  0.79486476133E+03  0.72251004797E+02  0.80031100295E+03  0.10100000352E+00 0. -1.
</event>
<event>
 5   0  0.1285639E-04  0.1703150E+04  0.7818609E-02  0.8759570E-01
        2   -1    0    0  501    0  0.00000000000E+00  0.00000000000E+00  0.22247008788E+04  0.22247008788E+04  0.25500000920E-02 0. -1.
       -2   -1    0    0    0  501  0.00000000000E+00  0.00000000000E+00 -0.32596728921E+03  0.32596728922E+03  0.25500000920E-02 0.  1.
    10030    2    1    2    0    0  0.00000000000E+00  0.00000000000E+00  0.18987335896E+04  0.25506681681E+04  0.17031496878E+04 0.  0.
        4    1    3    3  502    0 -0.31106737250E+03 -0.62915675628E+03  0.16716117133E+04  0.18129777901E+04  0.12699999809E+01 0. -1.
       -4    1    3    3    0  502  0.31106737250E+03  0.62915675628E+03  0.22712187629E+03  0.73769037800E+03  0.12699999809E+01 0.  1.
</event>
<event>
 5   0  0.6539134E-05  0.1703057E+04  0.7818609E-02  0.8759623E-01
       -1   -1    0    0    0  501  0.00000000000E+00  0.00000000000E+00  0.80766567546E+03  0.80766567547E+03  0.50400001928E-02 0.  1.
        1   -1    0    0  501    0  0.00000000000E+00  0.00000000000E+00 -0.89777376736E+03  0.89777376738E+03  0.50400001928E-02 0. -1.
    10030    2    1    2    0    0  0.00000000000E+00  0.00000000000E+00 -0.90108091907E+02  0.17054394429E+04  0.17030573170E+04 0.  0.
        2    1    3    3  502    0  0.10358596325E+03 -0.45576787805E+03 -0.75784080636E+03  0.89038031101E+03  0.25500000920E-02 0. -1.
       -2    1    3    3    0  502 -0.10358596325E+03  0.45576787805E+03  0.66773271445E+03  0.81505913184E+03  0.25500000920E-02 0.  1.
</event>
<event>
 5   0  0.6601906E-05  0.1707227E+04  0.7818609E-02  0.8757253E-01
        1   -1    0    0  501    0  0.00000000000E+00  0.00000000000E+00  0.10477919914E+04  0.10477919914E+04  0.50400001928E-02 0. -1.
       -1   -1    0    0    0  501  0.00000000000E+00  0.00000000000E+00 -0.69542013340E+03  0.69542013342E+03  0.50400001928E-02 0.  1.
    10030    2    1    2    0    0  0.00000000000E+00  0.00000000000E+00  0.35237185801E+03  0.17432121248E+04  0.17072265772E+04 0.  0.
        1    1    3    3  502    0 -0.82029650402E+03 -0.33228308634E+02 -0.62548157571E+02  0.82334849672E+03  0.50400001928E-02 0.  1.
       -1    1    3    3    0  502  0.82029650402E+03  0.33228308634E+02  0.41492001558E+03  0.91986362813E+03  0.50400001928E-02 0. -1.
</event>
<event>
 5   0  0.1333546E-04  0.1701106E+04  0.7818609E-02  0.8760734E-01
       -2   -1    0    0    0  501  0.00000000000E+00  0.00000000000E+00  0.36272921572E+03  0.36272921572E+03  0.25500000920E-02 0.  1.
        2   -1    0    0  501    0  0.00000000000E+00  0.00000000000E+00 -0.19944361123E+04  0.19944361123E+04  0.25500000920E-02 0. -1.
    10030    2    1    2    0    0  0.00000000000E+00  0.00000000000E+00 -0.16317068965E+04  0.23571653280E+04  0.17011058131E+04 0.  0.
        5    1    3    3  502    0  0.41164122619E+03  0.33522503221E+03  0.10495695387E+03  0.54116760203E+03  0.46999998093E+01 0.  1.
       -5    1    3    3    0  502 -0.41164122619E+03 -0.33522503221E+03 -0.17366638504E+04  0.18159977260E+04  0.46999998093E+01 0. -1.
</event>
<event>
 5   0  0.6834837E-05  0.1696015E+04  0.7818609E-02  0.8763641E-01
        1   -1    0    0  501    0  0.00000000000E+00  0.00000000000E+00  0.12670989790E+04  0.12670989790E+04  0.50400001928E-02 0.  1.
       -1   -1    0    0    0  501  0.00000000000E+00  0.00000000000E+00 -0.56752976778E+03  0.56752976780E+03  0.50400001928E-02 0. -1.
    10030    2    1    2    0    0  0.00000000000E+00  0.00000000000E+00  0.69956921118E+03  0.18346287468E+04  0.16960146100E+04 0.  0.
        5    1    3    3  502    0  0.44399792937E+03  0.29437710774E+03 -0.36391271171E+03  0.64517175588E+03  0.46999998093E+01 0. -1.
       -5    1    3    3    0  502 -0.44399792937E+03 -0.29437710774E+03  0.10634819229E+04  0.11894569909E+04  0.46999998093E+01 0.  1.
</event>
<event>
 5   0  0.1393870E-04  0.1696409E+04  0.7818609E-02  0.8763415E-01
       -2   -1    0    0    0  501  0.00000000000E+00  0.00000000000E+00  0.15579763907E+04  0.15579763907E+04  0.25500000920E-02 0. -1.
        2   -1    0    0  501    0  0.00000000000E+00  0.00000000000E+00 -0.46178574008E+03  0.46178574009E+03  0.25500000920E-02 0.  1.
    10030    2    1    2    0    0  0.00000000000E+00  0.00000000000E+00  0.10961906507E+04  0.20197621308E+04  0.16964094796E+04 0.  0.
        3    1    3    3  502    0 -0.68054441127E+03 -0.30789125331E+02 -0.53560580560E+02  0.68334282168E+03  0.10100000352E+00 0.  1.
       -3    1    3    3    0  502  0.68054441127E+03  0.30789125331E+02  0.11497512312E+04  0.13364193092E+04  0.10100000352E+00 0. -1.
</event>
<event>
 5   0  0.1255362E-04  0.1700651E+04  0.7818609E-02  0.8760993E-01
        2   -1    0    0  501    0  0.00000000000E+00  0.00000000000E+00  0.97422114626E+03  0.97422114626E+03  0.25500000920E-02 0. -1.
       -2   -1    0    0    0  501  0.00000000000E+00  0.00000000000E+00 -0.74218622132E+03  0.74218622132E+03  0.25500000920E-02 0.  1.
    10030    2    1    2    0    0  0.00000000000E+00  0.00000000000E+00  0.23203492494E+03  0.17164073676E+04  0.17006510651E+04 0.  0.
        1    1    3    3  502    0 -0.65322907093E+03 -0.53417122998E+03  0.10134133307E+02  0.84388969820E+03  0.50400001928E-02 0. -1.
       -1    1    3    3    0  502  0.65322907093E+03  0.53417122998E+03  0.22190079164E+03  0.87251766939E+03  0.50400001928E-02 0.  1.
</event>
<event>
 5   0  0.6539134E-05  0.1700480E+04  0.7818609E-02  0.8761091E-01
       -1   -1    0    0    0  501  0.00000000000E+00  0.00000000000E+00  0.31200051446E+03  0.31200051450E+03  0.50400001928E-02 0.  1.
        1   -1    0    0  501    0  0.00000000000E+00  0.00000000000E+00 -0.23170097611E+04  0.23170097611E+04  0.50400001928E-02 0. -1.
    10030    2    1    2    0    0  0.00000000000E+00  0.00000000000E+00 -0.20050092466E+04  0.26290102756E+04  0.17004802116E+04 0.  0.
        2    1    3    3  502    0 -0.10368288918E+02 -0.31522182003E+03  0.21821694710E+03  0.38352435809E+03  0.25500000920E-02 0.  1.
       -2    1    3    3    0  502  0.10368288918E+02  0.31522182003E+03 -0.22232261937E+04  0.22454859175E+04  0.25500000920E-02 0. -1.
</event>
<event>
 5   0  0.6539134E-05  0.1699108E+04  0.7818609E-02  0.8761873E-01
        1   -1    0    0  501    0  0.00000000000E+00  0.00000000000E+00  0.14528612223E+04  0.14528612223E+04  0.50400001928E-02 0. -1.
       -1   -1    0    0    0  501  0.00000000000E+00  0.00000000000E+00 -0.49677287239E+03  0.49677287241E+03  0.50400001928E-02 0.  1.
    10030    2    1    2    0    0  0.00000000000E+00  0.00000000000E+00  0.95608834987E+03  0.19496340947E+04  0.16991080514E+04 0.  0.
        2    1    3    3  502    0 -0.19362301201E+03  0.38112442096E+03  0.13204571054E+04  0.13879310726E+04  0.25500000920E-02 0. -1.
       -2    1    3    3    0  502  0.19362301201E+03 -0.38112442096E+03 -0.36436875552E+03  0.56170302210E+03  0.25500000920E-02 0.  1.
</event>
<event>
 5   0  0.1393870E-04  0.1703088E+04  0.7818609E-02  0.8759605E-01
       -2   -1    0    0    0  501  0.00000000000E+00  0.00000000000E+00  0.11756580265E+04  0.11756580265E+04  0.25500000920E-02 0. -1.
        2   -1    0    0  501    0  0.00000000000E+00  0.00000000000E+00 -0.61678381891E+03  0.61678381891E+03  0.25500000920E-02 0.  1.
    10030    2    1    2    0    0  0.00000000000E+00  0.00000000000E+00  0.55887420759E+03  0.17924418454E+04  0.17030876047E+04 0.  0.
        3    1    3    3  502    0  0.29477059765E+03 -0.62124097783E+03 -0.24920766546E+03  0.73139218516E+03  0.10100000352E+00 0.  1.
       -3    1    3    3    0  502 -0.29477059765E+03  0.62124097783E+03  0.80808187305E+03  0.10610496603E+04  0.10100000352E+00 0. -1.
</event>
<event>
 5   0  0.1333546E-04  0.1699915E+04  0.7818609E-02  0.8761413E-01
       -2   -1    0    0    0  501  0.00000000000E+00  0.00000000000E+00  0.63594186894E+03  0.63594186894E+03  0.25500000920E-02 0. -1.
        2   -1    0    0  501    0  0.00000000000E+00  0.00000000000E+00 -0.11359971320E+04  0.11359971320E+04  0.25500000920E-02 0.  1.
    10030    2    1    2    0    0  0.00000000000E+00  0.00000000000E+00 -0.50005526304E+03  0.17719390009E+04  0.16999154558E+04 0.  0.
        5    1    3    3  502    0 -0.29619714805E+03 -0.78769219222E+03 -0.12575247433E+03  0.85089806382E+03  0.46999998093E+01 0.  1.
       -5    1    3    3    0  502  0.29619714805E+03  0.78769219222E+03 -0.37430278872E+03  0.92104093712E+03  0.46999998093E+01 0. -1.
</event>
<event>
 5   0  0.6564887E-05  0.1698729E+04  0.7818609E-02  0.8762090E-01
        1   -1    0    0  501    0  0.00000000000E+00  0.00000000000E+00  0.64750316316E+03  0.64750316318E+03  0.50400001928E-02 0.  1.
       -1   -1    0    0    0  501  0.00000000000E+00  0.00000000000E+00 -0.11141562855E+04  0.11141562855E+04  0.50400001928E-02 0. -1.
    10030    2    1    2    0    0  0.00000000000E+00  0.00000000000E+00 -0.46665312233E+03  0.17616594487E+04  0.16987286059E+04 0.  0.
        4    1    3    3  502    0 -0.50002322561E+03  0.35707155719E+03  0.37482349493E+03  0.71973438737E+03  0.12699999809E+01 0.  1.
       -4    1    3    3    0  502  0.50002322561E+03 -0.35707155719E+03 -0.84147661726E+03  0.10419250613E+04  0.12699999809E+01 0. -1.
</event>
<event>
 5   0  0.6564887E-05  0.1700722E+04  0.7818609E-02  0.8760953E-01
       -1   -1    0    0    0  501  0.00000000000E+00  0.00000000000E+00  0.64463866433E+03  0.64463866435E+03  0.50400001928E-02 0. -1.
        1   -1    0    0  501    0  0.00000000000E+00  0.00000000000E+00 -0.11217353562E+04  0.11217353562E+04  0.50400001928E-02 0.  1.
    10030    2    1    2    0    0  0.00000000000E+00  0.00000000000E+00 -0.47709669183E+03  0.17663740205E+04  0.17007221781E+04 0.  0.
        4    1    3    3  502    0 -0.56425992767E+03  0.28253709638E+03  0.35345124084E+03  0.72328823394E+03  0.12699999809E+01 0. -1.
       -4    1    3    3    0  502  0.56425992767E+03 -0.28253709638E+03 -0.83054793267E+03  0.10430857866E+04  0.12699999809E+01 0.  1.
</event>
<event>
 5   0  0.6601906E-05  0.1703393E+04  0.7818609E-02  0.8759432E-01
       -1   -1    0    0    0  501  0.00000000000E+00  0.00000000000E+00  0.10524061050E+04  0.10524061050E+04  0.50400001928E-02 0.  1.
        1   -1    0    0  501    0  0.00000000000E+00  0.00000000000E+00 -0.68926520158E+03  0.68926520160E+03  0.50400001928E-02 0. -1.
    10030    2    1    2    0    0  0.00000000000E+00  0.00000000000E+00  0.36314090340E+03  0.17416713066E+04  0.17033929742E+04 0.  0.
        1    1    3    3  502    0 -0.41874536835E+03  0.92492453751E+02 -0.57082178790E+03  0.71396081901E+03  0.50400001928E-02 0. -1.
       -1    1    3    3    0  502  0.41874536835E+03 -0.92492453751E+02  0.93396269131E+03  0.10277104876E+04  0.50400001928E-02 0.  1.
</event>
<event>
 5   0  0.6601906E-05  0.1697580E+04  0.7818609E-02  0.8762746E-01
        1   -1    0    0  501    0  0.00000000000E+00  0.00000000000E+00  0.93732087094E+03  0.93732087096E+03  0.50400001928E-02 0.  1.
       -1   -1    0    0    0  501  0.00000000000E+00  0.00000000000E+00 -0.76862062313E+03  0.76862062315E+03  0.50400001928E-02 0. -1.
    10030    2    1    2    0    0  0.00000000000E+00  0.00000000000E+00  0.16870024781E+03  0.17059414941E+04  0.16975796322E+04 0.  0.
        1    1    3    3  502    0  0.22685249725E+03  0.81182148249E+02  0.90223348007E+03  0.93385108518E+03  0.50400001928E-02 0.  1.
       -1    1    3    3    0  502 -0.22685249725E+03 -0.81182148249E+02 -0.73353323226E+03  0.77209040893E+03  0.50400001928E-02 0. -1.
</event>
<event>
 5   0  0.6539134E-05  0.1702878E+04  0.7818609E-02  0.8759725E-01
        1   -1    0    0  501    0  0.00000000000E+00  0.00000000000E+00  0.74141672118E+03  0.74141672119E+03  0.50400001928E-02 0. -1.
       -1   -1    0    0    0  501  0.00000000000E+00  0.00000000000E+00 -0.97778753480E+03  0.97778753481E+03  0.50400001928E-02 0.  1.
    10030    2    1    2    0    0  0.00000000000E+00  0.00000000000E+00 -0.23637081362E+03  0.17192042560E+04  0.17028775976E+04 0.  0.
        2    1    3    3  502    0 -0.12205889861E+03  0.69345083505E+03  0.36512731533E+03  0.79315218701E+03  0.25500000920E-02 0. -1.
       -2    1    3    3    0  502  0.12205889861E+03 -0.69345083505E+03 -0.60149812895E+03  0.92605206900E+03  0.25500000920E-02 0.  1.
</event>
<event>
 5   0  0.6834837E-05  0.1702392E+04  0.7818609E-02  0.8760002E-01
        1   -1    0    0  501    0  0.00000000000E+00  0.00000000000E+00  0.10677222708E+04  0.10677222708E+04  0.50400001928E-02 0.  1.
       -1   -1    0    0    0  501  0.00000000000E+00  0.00000000000E+00 -0.67857931942E+03  0.67857931944E+03  0.50400001928E-02 0. -1.
    10030    2    1    2    0    0  0.00000000000E+00  0.00000000000E+00  0.38914295137E+03  0.17463015902E+04  0.17023915553E+04 0.  0.
        5    1    3    3  502    0  0.20651126303E+03  0.24856100727E+03  0.10023356650E+04  0.10531516280E+04  0.46999998093E+01 0.  1.
       -5    1    3    3    0  502 -0.20651126303E+03 -0.24856100727E+03 -0.61319271367E+03  0.69314996226E+03  0.46999998093E+01 0. -1.
</event>
<event>
 5   0  0.6539134E-05  0.1709420E+04  0.7818609E-02  0.8756010E-01
        1   -1    0    0  501    0  0.00000000000E+00  0.00000000000E+00  0.86160582002E+03  0.86160582003E+03  0.50400001928E-02 0.  1.
       -1   -1    0    0    0  501  0.00000000000E+00  0.00000000000E+00 -0.84786889455E+03  0.84786889457E+03  0.50400001928E-02 0. -1.
    10030    2    1    2    0    0  0.00000000000E+00  0.00000000000E+00  0.13736925465E+02  0.17094747146E+04  0.17094195204E+04 0.  0.
        2    1    3    3  502    0 -0.27917202360E+03 -0.18408234246E+03 -0.77973525014E+03  0.84841640006E+03  0.25500000920E-02 0. -1.
       -2    1    3    3    0  502  0.27917202360E+03  0.18408234246E+03  0.79347217561E+03  0.86105831454E+03  0.25500000920E-02 0.  1.
</event>
<event>
 5   0  0.1255362E-04  0.1688916E+04  0.7818609E-02  0.8767711E-01
       -2   -1    0    0    0  501  0.00000000000E+00  0.00000000000E+00  0.10505347663E+04  0.10505347663E+04  0.25500000920E-02 0.  1.
        2   -1    0    0  501    0  0.00000000000E+00  0.00000000000E+00 -0.67880578663E+03  0.67880578663E+03  0.25500000920E-02 0. -1.
    10030    2    1    2    0    0  0.00000000000E+00  0.00000000000E+00  0.37172897968E+03  0.17293405529E+04  0.16889157213E+04 0.  0.
        1    1    3    3  502    0 -0.44779678694E+03  0.22462181788E+03  0.88193885698E+03  0.10142943709E+04  0.50400001928E-02 0.  1.
       -1    1    3    3    0  502  0.44779678694E+03 -0.22462181788E+03 -0.51020987730E+03  0.71504618200E+03  0.50400001928E-02 0. -1.
</event>
<event>
 5   0  0.1255362E-04  0.1701135E+04  0.7818609E-02  0.8760717E-01
       -2   -1    0    0    0  501  0.00000000000E+00  0.00000000000E+00  0.12228617136E+04  0.12228617136E+04  0.25500000920E-02 0.  1.
        2   -1    0    0  501    0  0.00000000000E+00  0.00000000000E+00 -0.59161639352E+03  0.59161639352E+03  0.25500000920E-02 0. -1.
    10030    2    1    2    0    0  0.00000000000E+00  0.00000000000E+00  0.63124532009E+03  0.18144781071E+04  0.17011349585E+04 0.  0.
        1    1    3    3  502    0  0.21722268225E+03 -0.66767106313E+03  0.82770928143E+03  0.10853907116E+04  0.50400001928E-02 0.  1.
       -1    1    3    3    0  502 -0.21722268225E+03  0.66767106313E+03 -0.19646396134E+03  0.72908739555E+03  0.50400001928E-02 0. -1.
</event>
<event>
 5   0  0.1269175E-04  0.1695973E+04  0.7818609E-02  0.8763665E-01
        2   -1    0    0  501    0  0.00000000000E+00  0.00000000000E+00  0.25027794267E+04  0.25027794267E+04  0.25500000920E-02 0. -1.
       -2   -1    0    0    0  501  0.00000000000E+00  0.00000000000E+00 -0.28731291586E+03  0.28731291587E+03  0.25500000920E-02 0.  1.
    10030    2    1    2    0    0  0.00000000000E+00  0.00000000000E+00  0.22154665108E+04  0.27900923425E+04  0.16959727060E+04 0.  0.
        2    1    3    3  502    0  0.17206506605E+01 -0.70465095285E+03  0.33164954180E+03  0.77879865471E+03  0.25500000920E-02 0.  1.
       -2    1    3    3    0  502 -0.17206506605E+01  0.70465095285E+03  0.18838169690E+04  0.20112936878E+04  0.25500000920E-02 0. -1.
</event>
<event>
 5   0  0.6564887E-05  0.1711699E+04  0.7818609E-02  0.8754720E-01
        1   -1    0    0  501    0  0.00000000000E+00  0.00000000000E+00  0.93406386314E+03  0.93406386316E+03  0.50400001928E-02 0. -1.
       -1   -1    0    0    0  501  0.00000000000E+00  0.00000000000E+00 -0.78418439984E+03  0.78418439986E+03  0.50400001928E-02 0.  1.
    10030    2    1    2    0    0  0.00000000000E+00  0.00000000000E+00  0.14987946330E+03  0.17182482630E+04  0.17116989338E+04 0.  0.
        4    1    3    3  502    0 -0.73842976329E+03 -0.37223723919E+03 -0.14644348270E+03  0.83981330311E+03  0.12699999809E+01 0.  1.
       -4    1    3    3    0  502  0.73842976329E+03  0.37223723919E+03  0.29632294600E+03  0.87843495990E+03  0.12699999809E+01 0. -1.
</event>
<event>
 5   0  0.6564887E-05  0.1696133E+04  0.7818609E-02  0.8763573E-01
        1   -1    0    0  501    0  0.00000000000E+00  0.00000000000E+00  0.75922631075E+03  0.75922631077E+03  0.50400001928E-02 0. -1.
       -1   -1    0    0    0  501  0.00000000000E+00  0.00000000000E+00 -0.94730245499E+03  0.94730245500E+03  0.50400001928E-02 0.  1.
    10030    2    1    2    0    0  0.00000000000E+00  0.00000000000E+00 -0.18807614424E+03  0.17065287658E+04  0.16961331883E+04 0.  0.
        4    1    3    3  502    0 -0.13738204978E+03  0.60703641770E+03  0.48555536155E+03  0.78938752337E+03  0.12699999809E+01 0. -1.
       -4    1    3    3    0  502  0.13738204978E+03 -0.60703641770E+03 -0.67363150579E+03  0.91714124240E+03  0.12699999809E+01 0.  1.
</event>
<event>
 5   0  0.6601906E-05  0.1705250E+04  0.7818609E-02  0.8758376E-01
       -1   -1    0    0    0  501  0.00000000000E+00  0.00000000000E+00  0.16341464704E+04  0.16341464705E+04  0.50400001928E-02 0.  1.
        1   -1    0    0  501    0  0.00000000000E+00  0.00000000000E+00 -0.44486185446E+03  0.44486185449E+03  0.50400001928E-02 0. -1.
    10030    2    1    2    0    0  0.00000000000E+00  0.00000000000E+00  0.11892846160E+04  0.20790083249E+04  0.17052500454E+04 0.  0.
        1    1    3    3  502    0 -0.40577522447E+03 -0.74569739286E+03  0.49824760963E+03  0.98436213613E+03  0.50400001928E-02 0.  1.
       -1    1    3    3    0  502  0.40577522447E+03  0.74569739286E+03  0.69103700635E+03  0.10946461888E+04  0.50400001928E-02 0. -1.
</event>
<event>
 5   0  0.6539134E-05  0.1693982E+04  0.7818609E-02  0.8764804E-01
        1   -1    0    0  501    0  0.00000000000E+00  0.00000000000E+00  0.12438211613E+04  0.12438211613E+04  0.50400001928E-02 0.  1.
       -1   -1    0    0    0  501  0.00000000000E+00  0.00000000000E+00 -0.57676595509E+03  0.57676595511E+03  0.50400001928E-02 0. -1.
    10030    2    1    2    0    0  0.00000000000E+00  0.00000000000E+00  0.66705520619E+03  0.18205871164E+04  0.16939819362E+04 0.  0.
        2    1    3    3  502    0 -0.37634234516E+03 -0.13166059481E+03 -0.46960149381E+03  0.61603054793E+03  0.25500000920E-02 0. -1.
       -2    1    3    3    0  502  0.37634234516E+03  0.13166059481E+03  0.11366567000E+04  0.12045565685E+04  0.25500000920E-02 0.  1.
</event>
<event>
 5   0  0.6539134E-05  0.1704281E+04  0.7818609E-02  0.8758927E-01
       -1   -1    0    0    0  501  0.00000000000E+00  0.00000000000E+00  0.10418861264E+04  0.10418861264E+04  0.50400001928E-02 0.  1.
        1   -1    0    0  501    0  0.00000000000E+00  0.00000000000E+00 -0.69695048117E+03  0.69695048119E+03  0.50400001928E-02 0. -1.
    10030    2    1    2    0    0  0.00000000000E+00  0.00000000000E+00  0.34493564520E+03  0.17388366076E+04  0.17042805369E+04 0.  0.
        2    1    3    3  502    0  0.52000849737E+02 -0.82923879083E+03  0.36551843884E+03  0.90771404623E+03  0.25500000920E-02 0.  1.
       -2    1    3    3    0  502 -0.52000849737E+02  0.82923879083E+03 -0.20582793638E+02  0.83112256135E+03  0.25500000920E-02 0. -1.
</event>
<event>
 5   0  0.1393870E-04  0.1689149E+04  0.7818609E-02  0.8767578E-01
       -2   -1    0    0    0  501  0.00000000000E+00  0.00000000000E+00  0.72353109394E+03  0.72353109394E+03  0.25500000920E-02 0.  1.
        2   -1    0    0  501    0  0.00000000000E+00  0.00000000000E+00 -0.98586761682E+03  0.98586761682E+03  0.25500000920E-02 0. -1.
    10030    2    1    2    0    0  0.00000000000E+00  0.00000000000E+00 -0.26233652288E+03  0.17093987108E+04  0.16891487504E+04 0.  0.
        3    1    3    3  502    0  0.30052690904E+03  0.20549189339E+03 -0.90238201807E+03  0.97305532116E+03  0.10100000352E+00 0. -1.
       -3    1    3    3    0  502 -0.30052690904E+03 -0.20549189339E+03  0.64004549519E+03  0.73634338961E+03  0.10100000352E+00 0.  1.
</event>
<event>
 5   0  0.1255362E-04  0.1704403E+04  0.7818609E-02  0.8758857E-01
        2   -1    0    0  501    0  0.00000000000E+00  0.00000000000E+00  0.23196290003E+04  0.23196290003E+04  0.25500000920E-02 0.  1.
       -2   -1    0    0    0  501  0.00000000000E+00  0.00000000000E+00 -0.31308755471E+03  0.31308755472E+03  0.25500000920E-02 0. -1.
    10030    2    1    2    0    0  0.00000000000E+00  0.00000000000E+00  0.20065414456E+04  0.26327165551E+04  0.17044025013E+04 0.  0.
        1    1    3    3  502    0  0.37868638647E+03 -0.52706383556E+03  0.18564013594E+04  0.19665771466E+04  0.50400001928E-02 0.  1.
       -1    1    3    3    0  502 -0.37868638647E+03  0.52706383556E+03  0.15014008620E+03  0.66613940850E+03  0.50400001928E-02 0. -1.
</event>
<event>
 5   0  0.1393870E-04  0.1702879E+04  0.7818609E-02  0.8759724E-01
       -2   -1    0    0    0  501  0.00000000000E+00  0.00000000000E+00  0.46522526576E+03  0.46522526577E+03  0.25500000920E-02 0. -1.
        2   -1    0    0  501    0  0.00000000000E+00  0.00000000000E+00 -0.15582750171E+04  0.15582750171E+04  0.25500000920E-02 0.  1.
    10030    2    1    2    0    0  0.00000000000E+00  0.00000000000E+00 -0.10930497514E+04  0.20235002829E+04  0.17028786322E+04 0.  0.
        3    1    3    3  502    0 -0.76814138026E+03 -0.12177849301E+03 -0.95829116170E+03  0.12341771114E+04  0.10100000352E+00 0.  1.
       -3    1    3    3    0  502  0.76814138026E+03  0.12177849301E+03 -0.13475858967E+03  0.78932317153E+03  0.10100000352E+00 0. -1.
</event>
<event>
 5   0  0.6601906E-05  0.1701192E+04  0.7818609E-02  0.8760685E-01
       -1   -1    0    0    0  501  0.00000000000E+00  0.00000000000E+00  0.65799700950E+03  0.65799700952E+03  0.50400001928E-02 0.  1.
        1   -1    0    0  501    0  0.00000000000E+00  0.00000000000E+00 -0.10995698692E+04  0.10995698692E+04  0.50400001928E-02 0. -1.
    10030    2    1    2    0    0  0.00000000000E+00  0.00000000000E+00 -0.44157285968E+03  0.17575668787E+04  0.17011921534E+04 0.  0.
        1    1    3    3  502    0 -0.18865275558E+03 -0.42778611873E+03 -0.95491310631E+03  0.10632261595E+04  0.50400001928E-02 0. -1.
       -1    1    3    3    0  502  0.18865275558E+03  0.42778611873E+03  0.51334024662E+03  0.69434071924E+03  0.50400001928E-02 0.  1.
</event>
<event>
 5   0  0.1269175E-04  0.1715416E+04  0.7818609E-02  0.8752621E-01
       -2   -1    0    0    0  501  0.00000000000E+00  0.00000000000E+00  0.55516187724E+03  0.55516187724E+03  0.25500000920E-02 0.  1.
        2   -1    0    0  501    0  0.00000000000E+00  0.00000000000E+00 -0.13251318593E+04  0.13251318593E+04  0.25500000920E-02 0. -1.
    10030    2    1    2    0    0  0.00000000000E+00  0.00000000000E+00 -0.76996998201E+03  0.18802937365E+04  0.17154156238E+04 0.  0.
        2    1    3    3  502    0 -0.80478166083E+03  0.27182960929E+03 -0.51513149630E+03  0.99344114903E+03  0.25500000920E-02 0.  1.
       -2    1    3    3    0  502  0.80478166083E+03 -0.27182960929E+03 -0.25483848571E+03  0.88685258747E+03  0.25500000920E-02 0. -1.
</event>
<event>
 5   0  0.1269175E-04  0.1703123E+04  0.7818609E-02  0.8759585E-01
       -2   -1    0    0    0  501  0.00000000000E+00  0.00000000000E+00  0.47265157429E+03  0.47265157430E+03  0.25500000920E-02 0.  1.
        2   -1    0    0  501    0  0.00000000000E+00  0.00000000000E+00 -0.15342322559E+04  0.15342322559E+04  0.25500000920E-02 0. -1.
    10030    2    1    2    0    0  0.00000000000E+00  0.00000000000E+00 -0.10615806816E+04  0.20068838302E+04  0.17031233556E+04 0.  0.
        2    1    3    3  502    0  0.77333922943E+02  0.68154116707E+03 -0.11254550690E+04  0.13180015214E+04  0.25500000920E-02 0. -1.
       -2    1    3    3    0  502 -0.77333922943E+02 -0.68154116707E+03  0.63874387370E+02  0.68888230883E+03  0.25500000920E-02 0.  1.
</event>
<event>
 5   0  0.6601906E-05  0.1704469E+04  0.7818609E-02  0.8758819E-01
        1   -1    0    0  501    0  0.00000000000E+00  0.00000000000E+00  0.16223795107E+04  0.16223795107E+04  0.50400001928E-02 0. -1.
       -1   -1    0    0    0  501  0.00000000000E+00  0.00000000000E+00 -0.44767822587E+03  0.44767822590E+03  0.50400001928E-02 0.  1.
    10030    2    1    2    0    0  0.00000000000E+00  0.00000000000E+00  0.11747012848E+04  0.20700577366E+04  0.17044693967E+04 0.  0.
        1    1    3    3  502    0 -0.26238945575E+03  0.65218619632E+03  0.22384256720E+01  0.70299364986E+03  0.50400001928E-02 0.  1.
       -1    1    3    3    0  502  0.26238945575E+03 -0.65218619632E+03  0.11724628591E+04  0.13670640867E+04  0.50400001928E-02 0. -1.
</event>
<event>
 5   0  0.6564887E-05  0.1693322E+04  0.7818609E-02  0.8765183E-01
       -1   -1    0    0    0  501  0.00000000000E+00  0.00000000000E+00  0.11689798366E+04  0.11689798366E+04  0.50400001928E-02 0.  1.
        1   -1    0    0  501    0  0.00000000000E+00  0.00000000000E+00 -0.61321368125E+03  0.61321368127E+03  0.50400001928E-02 0. -1.
    10030    2    1    2    0    0  0.00000000000E+00  0.00000000000E+00  0.55576615531E+03  0.17821935178E+04  0.16933215039E+04 0.  0.
        4    1    3    3  502    0  0.23970310446E+03  0.22649520494E+03  0.10986012835E+04  0.11470327150E+04  0.12699999809E+01 0.  1.
       -4    1    3    3    0  502 -0.23970310446E+03 -0.22649520494E+03 -0.54283512822E+03  0.63516080285E+03  0.12699999809E+01 0. -1.
</event>
<event>
 5   0  0.6834837E-05  0.1700222E+04  0.7818609E-02  0.8761238E-01
        1   -1    0    0  501    0  0.00000000000E+00  0.00000000000E+00  0.10265098664E+04  0.10265098664E+04  0.50400001928E-02 0.  1.
       -1   -1    0    0    0  501  0.00000000000E+00  0.00000000000E+00 -0.70402491913E+03  0.70402491915E+03  0.50400001928E-02 0. -1.
    10030    2    1    2    0    0  0.00000000000E+00  0.00000000000E+00  0.32248494728E+03  0.17305347856E+04  0.17002217805E+04 0.  0.
        5    1    3    3  502    0  0.74798211562E+02  0.77960848156E+03  0.49771501570E+03  0.92796901016E+03  0.46999998093E+01 0.  1.
       -5    1    3    3    0  502 -0.74798211562E+02 -0.77960848156E+03 -0.17523006842E+03  0.80256577540E+03  0.46999998093E+01 0. -1.
</event>
<event>
 5   0  0.1285639E-04  0.1700488E+04  0.7818609E-02  0.8761086E-01
       -2   -1    0    0    0  501  0.00000000000E+00  0.00000000000E+00  0.49151120652E+03  0.49151120653E+03  0.25500000920E-02 0.  1.
        2   -1    0    0  501    0  0.00000000000E+00  0.00000000000E+00 -0.14707999811E+04  0.14707999811E+04  0.25500000920E-02 0. -1.
    10030    2    1    2    0    0  0.00000000000E+00  0.00000000000E+00 -0.97928877453E+03  0.19623111876E+04  0.17004877809E+04 0.  0.
        4    1    3    3  502    0 -0.11980439341E+03  0.69396255488E+03  0.60129712460E+02  0.70679156438E+03  0.12699999809E+01 0.  1.
       -4    1    3    3    0  502  0.11980439341E+03 -0.69396255488E+03 -0.10394184870E+04  0.12555196232E+04  0.12699999809E+01 0. -1.
</event>
<event>
 5   0  0.6834837E-05  0.1693107E+04  0.7818609E-02  0.8765305E-01
        1   -1    0    0  501    0  0.00000000000E+00  0.00000000000E+00  0.79975512673E+03  0.79975512674E+03  0.50400001928E-02 0. -1.
       -1   -1    0    0    0  501  0.00000000000E+00  0.00000000000E+00 -0.89609063824E+03  0.89609063825E+03  0.50400001928E-02 0.  1.
    10030    2    1    2    0    0  0.00000000000E+00  0.00000000000E+00 -0.96335511513E+02  0.16958457650E+04  0.16931072996E+04 0.  0.
        5    1    3    3  502    0 -0.11006085862E+03 -0.12256567238E+03  0.78353379273E+03  0.80067660825E+03  0.46999998093E+01 0. -1.
       -5    1    3    3    0  502  0.11006085862E+03  0.12256567238E+03 -0.87986930424E+03  0.89516915675E+03  0.46999998093E+01 0.  1.
</event>
<event>
 5   0  0.1255362E-04  0.1663207E+04  0.7818609E-02  0.8782631E-01
       -2   -1    0    0    0  501  0.00000000000E+00  0.00000000000E+00  0.39084604189E+03  0.39084604190E+03  0.25500000920E-02 0. -1.
        2   -1    0    0  501    0  0.00000000000E+00  0.00000000000E+00 -0.17694039294E+04  0.17694039294E+04  0.25500000920E-02 0.  1.
    10030    2    1    2    0    0  0.00000000000E+00  0.00000000000E+00 -0.13785578875E+04  0.21602499713E+04  0.16632071697E+04 0.  0.
        1    1    3    3  502    0 -0.14007563655E+03 -0.36107681493E+03 -0.16451156510E+04  0.16900896885E+04  0.50400001928E-02 0.  1.
       -1    1    3    3    0  502  0.14007563655E+03  0.36107681493E+03  0.26655776344E+03  0.47016028278E+03  0.50400001928E-02 0. -1.
</event>
<event>
 5   0  0.6834837E-05  0.1696822E+04  0.7818609E-02  0.8763179E-01
       -1   -1    0    0    0  501  0.00000000000E+00  0.00000000000E+00  0.61429933945E+03  0.61429933947E+03  0.50400001928E-02 0.  1.
        1   -1    0    0  501    0  0.00000000000E+00  0.00000000000E+00 -0.11717428049E+04  0.11717428049E+04  0.50400001928E-02 0. -1.
    10030    2    1    2    0    0  0.00000000000E+00  0.00000000000E+00 -0.55744346546E+03  0.17860421444E+04  0.16968215358E+04 0.  0.
        5    1    3    3  502    0 -0.21760455325E+03 -0.81996955025E+03 -0.28795426412E+03  0.89590264714E+03  0.46999998093E+01 0.  1.
       -5    1    3    3    0  502  0.21760455325E+03  0.81996955025E+03 -0.26948920135E+03  0.89013949725E+03  0.46999998093E+01 0. -1.
</event>
<event>
 5   0  0.6615842E-05  0.1699323E+04  0.7818609E-02  0.8761750E-01
       -1   -1    0    0    0  501  0.00000000000E+00  0.00000000000E+00  0.44658703773E+03  0.44658703776E+03  0.50400001928E-02 0. -1.
        1   -1    0    0  501    0  0.00000000000E+00  0.00000000000E+00 -0.16165382768E+04  0.16165382768E+04  0.50400001928E-02 0.  1.
    10030    2    1    2    0    0  0.00000000000E+00  0.00000000000E+00 -0.11699512391E+04  0.20631253145E+04  0.16993234424E+04 0.  0.
        3    1    3    3  502    0 -0.10662721199E+03  0.78227712085E+03 -0.96620292153E+03  0.12477479521E+04  0.10100000352E+00 0.  1.
       -3    1    3    3    0  502  0.10662721199E+03 -0.78227712085E+03 -0.20374831753E+03  0.81537736247E+03  0.10100000352E+00 0. -1.
</event>
<event>
 5   0  0.6615842E-05  0.1697255E+04  0.7818609E-02  0.8762931E-01
       -1   -1    0    0    0  501  0.00000000000E+00  0.00000000000E+00  0.54180877939E+03  0.54180877941E+03  0.50400001928E-02 0.  1.
        1   -1    0    0  501    0  0.00000000000E+00  0.00000000000E+00 -0.13291938669E+04  0.13291938669E+04  0.50400001928E-02 0. -1.
    10030    2    1    2    0    0  0.00000000000E+00  0.00000000000E+00 -0.78738508750E+03  0.18710026463E+04  0.16972553215E+04 0.  0.
        3    1    3    3  502    0  0.32246001393E+03 -0.77433979044E+03 -0.53566441457E+03  0.99524818356E+03  0.10100000352E+00 0. -1.
       -3    1    3    3    0  502 -0.32246001393E+03  0.77433979044E+03 -0.25172067294E+03  0.87575446275E+03  0.10100000352E+00 0.  1.
</event>
<event>
 5   0  0.6834837E-05  0.1700067E+04  0.7818609E-02  0.8761326E-01
        1   -1    0    0  501    0  0.00000000000E+00  0.00000000000E+00  0.63488499980E+03  0.63488499982E+03  0.50400001928E-02 0.  1.
       -1   -1    0    0    0  501  0.00000000000E+00  0.00000000000E+00 -0.11380904205E+04  0.11380904206E+04  0.50400001928E-02 0. -1.
    10030    2    1    2    0    0  0.00000000000E+00  0.00000000000E+00 -0.50320542074E+03  0.17729754204E+04  0.17000665122E+04 0.  0.
        5    1    3    3  502    0 -0.39751883065E+03  0.56968535460E+02  0.52970456845E+03  0.66473728238E+03  0.46999998093E+01 0.  1.
       -5    1    3    3    0  502  0.39751883065E+03 -0.56968535460E+02 -0.10329099892E+04  0.11082381380E+04  0.46999998093E+01 0. -1.
</event>
<event>
 5   0  0.1285639E-04  0.1700007E+04  0.7818609E-02  0.8761361E-01
        2   -1    0    0  501    0  0.00000000000E+00  0.00000000000E+00  0.48672718765E+03  0.48672718765E+03  0.25500000920E-02 0. -1.
       -2   -1    0    0    0  501  0.00000000000E+00  0.00000000000E+00 -0.14844159957E+04  0.14844159957E+04  0.25500000920E-02 0.  1.
    10030    2    1    2    0    0  0.00000000000E+00  0.00000000000E+00 -0.99768880810E+03  0.19711431834E+04  0.17000066152E+04 0.  0.
        4    1    3    3  502    0  0.45303333784E+03 -0.11415977546E+03 -0.13221914165E+04  0.14023064623E+04  0.12699999809E+01 0.  1.
       -4    1    3    3    0  502 -0.45303333784E+03  0.11415977546E+03  0.32450260838E+03  0.56883672110E+03  0.12699999809E+01 0. -1.
</event>
<event>
 5   0  0.1393870E-04  0.1704975E+04  0.7818609E-02  0.8758532E-01
       -2   -1    0    0    0  501  0.00000000000E+00  0.00000000000E+00  0.43381315699E+03  0.43381315700E+03  0.25500000920E-02 0.  1.
        2   -1    0    0  501    0  0.00000000000E+00  0.00000000000E+00 -0.16752250376E+04  0.16752250376E+04  0.25500000920E-02 0. -1.
    10030    2    1    2    0    0  0.00000000000E+00  0.00000000000E+00 -0.12414118806E+04  0.21090381946E+04  0.17049746769E+04 0.  0.
        3    1    3    3  502    0  0.30041886891E+03 -0.64810713385E+03 -0.11961930147E+04  0.13932595208E+04  0.10100000352E+00 0. -1.
       -3    1    3    3    0  502 -0.30041886891E+03  0.64810713385E+03 -0.45218865859E+02  0.71577867374E+03  0.10100000352E+00 0.  1.
</event>
<event>
 5   0  0.1269175E-04  0.1703824E+04  0.7818609E-02  0.8759186E-01
       -2   -1    0    0    0  501  0.00000000000E+00  0.00000000000E+00  0.49964935207E+03  0.49964935208E+03  0.25500000920E-02 0. -1.
        2   -1    0    0  501    0  0.00000000000E+00  0.00000000000E+00 -0.14525272828E+04  0.14525272828E+04  0.25500000920E-02 0.  1.
    10030    2    1    2    0    0  0.00000000000E+00  0.00000000000E+00 -0.95287793070E+03  0.19521766349E+04  0.17038243052E+04 0.  0.
        2    1    3    3  502    0 -0.20134862403E+02 -0.83650931595E+03 -0.65976465920E+03  0.10655715151E+04  0.25500000920E-02 0.  1.
       -2    1    3    3    0  502  0.20134862403E+02  0.83650931595E+03 -0.29311327151E+03  0.88660511971E+03  0.25500000920E-02 0. -1.
</event>
<event>
 5   0  0.1255362E-04  0.1706559E+04  0.7818609E-02  0.8757633E-01
        2   -1    0    0  501    0  0.00000000000E+00  0.00000000000E+00  0.72702856065E+03  0.72702856066E+03  0.25500000920E-02 0. -1.
       -2   -1    0    0    0  501  0.00000000000E+00  0.00000000000E+00 -0.10014538286E+04  0.10014538286E+04  0.25500000920E-02 0.  1.
    10030    2    1    2    0    0  0.00000000000E+00  0.00000000000E+00 -0.27442526797E+03  0.17284823893E+04  0.17065585669E+04 0.  0.
        1    1    3    3  502    0 -0.74855224380E+03  0.33070545835E+03  0.10752974804E+03  0.82538427936E+03  0.50400001928E-02 0. -1.
       -1    1    3    3    0  502  0.74855224380E+03 -0.33070545835E+03 -0.38195501601E+03  0.90309810993E+03  0.50400001928E-02 0.  1.
</event>
<event>
 5   0  0.1333546E-04  0.1703534E+04  0.7818609E-02  0.8759351E-01
       -2   -1    0    0    0  501  0.00000000000E+00  0.00000000000E+00  0.58542468341E+03  0.58542468342E+03  0.25500000920E-02 0. -1.
        2   -1    0    0  501    0  0.00000000000E+00  0.00000000000E+00 -0.12392838998E+04  0.12392838998E+04  0.25500000920E-02 0.  1.
    10030    2    1    2    0    0  0.00000000000E+00  0.00000000000E+00 -0.65385921636E+03  0.18247085832E+04  0.17035344255E+04 0.  0.
        5    1    3    3  502    0 -0.35841960773E+03 -0.57237664842E+03 -0.88289268768E+03  0.11115760122E+04  0.46999998093E+01 0.  1.
       -5    1    3    3    0  502  0.35841960773E+03  0.57237664842E+03  0.22903347133E+03  0.71313257102E+03  0.46999998093E+01 0. -1.
</event>
<event>
 5   0  0.1393870E-04  0.1688357E+04  0.7818609E-02  0.8768033E-01
        2   -1    0    0  501    0  0.00000000000E+00  0.00000000000E+00  0.10538791435E+04  0.10538791435E+04  0.25500000920E-02 0. -1.
       -2   -1    0    0    0  501  0.00000000000E+00  0.00000000000E+00 -0.67620412983E+03  0.67620412984E+03  0.25500000920E-02 0.  1.
    10030    2    1    2    0    0  0.00000000000E+00  0.00000000000E+00  0.37767501363E+03  0.17300832733E+04  0.16883571058E+04 0.  0.
        3    1    3    3  502    0 -0.70516334326E+03 -0.40221731609E+03  0.42608328730E+03  0.91683209365E+03  0.10100000352E+00 0. -1.
       -3    1    3    3    0  502  0.70516334326E+03  0.40221731609E+03 -0.48408273670E+02  0.81325117965E+03  0.10100000352E+00 0.  1.
</event>
<event>
 5   0  0.6601906E-05  0.1702126E+04  0.7818609E-02  0.8760153E-01
       -1   -1    0    0    0  501  0.00000000000E+00  0.00000000000E+00  0.72012706244E+03  0.72012706246E+03  0.50400001928E-02 0. -1.
        1   -1    0    0  501    0  0.00000000000E+00  0.00000000000E+00 -0.10058062853E+04  0.10058062853E+04  0.50400001928E-02 0.  1.
    10030    2    1    2    0    0  0.00000000000E+00  0.00000000000E+00 -0.28567922283E+03  0.17259333477E+04  0.17021261124E+04 0.  0.
        1    1    3    3  502    0  0.11882576234E+03 -0.27734437248E+03 -0.94975194406E+03  0.99652808189E+03  0.50400001928E-02 0.  1.
       -1    1    3    3    0  502 -0.11882576234E+03  0.27734437248E+03  0.66407272122E+03  0.72940526584E+03  0.50400001928E-02 0. -1.
</event>
<event>
 5   0  0.6615842E-05  0.1706600E+04  0.7818609E-02  0.8757609E-01
        1   -1    0    0  501    0  0.00000000000E+00  0.00000000000E+00  0.94215442844E+03  0.94215442845E+03  0.50400001928E-02 0. -1.
       -1   -1    0    0    0  501  0.00000000000E+00  0.00000000000E+00 -0.77282530135E+03  0.77282530137E+03  0.50400001928E-02 0.  1.
    10030    2    1    2    0    0  0.00000000000E+00  0.00000000000E+00  0.16932912709E+03  0.17149797298E+04  0.17065998712E+04 0.  0.
        3    1    3    3  502    0  0.57870304551E+03 -0.60762801586E+03 -0.71053567825E+02  0.84211498041E+03  0.10100000352E+00 0. -1.
       -3    1    3    3    0  502 -0.57870304551E+03  0.60762801586E+03  0.24038269491E+03  0.87286474940E+03  0.10100000352E+00 0.  1.
</event>
<event>
 5   0  0.6834837E-05  0.1708329E+04  0.7818609E-02  0.8756628E-01
        1   -1    0    0  501    0  0.00000000000E+00  0.00000000000E+00  0.43219895058E+03  0.43219895061E+03  0.50400001928E-02 0.  1.
       -1   -1    0    0    0  501  0.00000000000E+00  0.00000000000E+00 -0.16881053502E+04  0.16881053502E+04  0.50400001928E-02 0. -1.
    10030    2    1    2    0    0  0.00000000000E+00  0.00000000000E+00 -0.12559063996E+04  0.21203043008E+04  0.17083294306E+04 0.  0.
        5    1    3    3  502    0  0.27215578874E+01  0.30406820433E+03 -0.16186343863E+04  0.16469560547E+04  0.46999998093E+01 0. -1.
       -5    1    3    3    0  502 -0.27215578874E+01 -0.30406820433E+03  0.36272798666E+03  0.47334824608E+03  0.46999998093E+01 0.  1.
</event>
<event>
 5   0  0.6615842E-05  0.1692608E+04  0.7818609E-02  0.8765591E-01
        1   -1    0    0  501    0  0.00000000000E+00  0.00000000000E+00  0.10284545124E+04  0.10284545124E+04  0.50400001928E-02 0.  1.
       -1   -1    0    0    0  501  0.00000000000E+00  0.00000000000E+00 -0.69641454092E+03  0.69641454093E+03  0.50400001928E-02 0. -1.
    10030    2    1    2    0    0  0.00000000000E+00  0.00000000000E+00  0.33203997148E+03  0.17248690533E+04  0.16926082561E+04 0.  0.
        3    1    3    3  502    0  0.41041732743E+03  0.69578270359E+03 -0.91128029015E+02  0.81293313448E+03  0.10100000352E+00 0. -1.
       -3    1    3    3    0  502 -0.41041732743E+03 -0.69578270359E+03  0.42316800050E+03  0.91193591886E+03  0.10100000352E+00 0.  1.
</event>
<event>
 5   0  0.1269175E-04  0.1703472E+04  0.7818609E-02  0.8759387E-01
        2   -1    0    0  501    0  0.00000000000E+00  0.00000000000E+00  0.18832991836E+04  0.18832991836E+04  0.25500000920E-02 0.  1.
       -2   -1    0    0    0  501  0.00000000000E+00  0.00000000000E+00 -0.38520400255E+03  0.38520400256E+03  0.25500000920E-02 0. -1.
    10030    2    1    2    0    0  0.00000000000E+00  0.00000000000E+00  0.14980951811E+04  0.22685031862E+04  0.17034721994E+04 0.  0.
        2    1    3    3  502    0  0.70256018045E+03  0.44842210815E+02  0.13875009811E+04  0.15558793667E+04  0.25500000920E-02 0.  1.
       -2    1    3    3    0  502 -0.70256018045E+03 -0.44842210815E+02  0.11059419992E+03  0.71262381947E+03  0.25500000920E-02 0. -1.
</event>
<event>
 5   0  0.1393870E-04  0.1704211E+04  0.7818609E-02  0.8758966E-01
       -2   -1    0    0    0  501  0.00000000000E+00  0.00000000000E+00  0.58912521301E+03  0.58912521301E+03  0.25500000920E-02 0. -1.
        2   -1    0    0  501    0  0.00000000000E+00  0.00000000000E+00 -0.12324777855E+04  0.12324777855E+04  0.25500000920E-02 0.  1.
    10030    2    1    2    0    0  0.00000000000E+00  0.00000000000E+00 -0.64335257244E+03  0.18216029985E+04  0.17042109469E+04 0.  0.
        3    1    3    3  502    0 -0.46687681562E+03  0.37713950267E+03 -0.96821879376E+03  0.11391469652E+04  0.10100000352E+00 0.  1.
       -3    1    3    3    0  502  0.46687681562E+03 -0.37713950267E+03  0.32486622132E+03  0.68245603330E+03  0.10100000352E+00 0. -1.
</event>
<event>
 5   0  0.6615842E-05  0.1700635E+04  0.7818609E-02  0.8761002E-01
       -1   -1    0    0    0  501  0.00000000000E+00  0.00000000000E+00  0.50037386458E+03  0.50037386461E+03  0.50400001928E-02 0.  1.
        1   -1    0    0  501    0  0.00000000000E+00  0.00000000000E+00 -0.14449999309E+04  0.14449999309E+04  0.50400001928E-02 0. -1.
    10030    2    1    2    0    0  0.00000000000E+00  0.00000000000E+00 -0.94462606627E+03  0.19453737955E+04  0.17006354104E+04 0.  0.
        3    1    3    3  502    0  0.44711805080E+03 -0.25210788060E+01 -0.12996686282E+04  0.13744305950E+04  0.10100000352E+00 0. -1.
       -3    1    3    3    0  502 -0.44711805080E+03  0.25210788060E+01  0.35504256191E+03  0.57094320047E+03  0.10100000352E+00 0.  1.
</event>
<event>
 5   0  0.6539134E-05  0.1721056E+04  0.7818609E-02  0.8749446E-01
        1   -1    0    0  501    0  0.00000000000E+00  0.00000000000E+00  0.11442276416E+04  0.11442276416E+04  0.50400001928E-02 0. -1.
       -1   -1    0    0    0  501  0.00000000000E+00  0.00000000000E+00 -0.64716887232E+03  0.64716887234E+03  0.50400001928E-02 0.  1.
    10030    2    1    2    0    0  0.00000000000E+00  0.00000000000E+00  0.49705876932E+03  0.17913965140E+04  0.17210560857E+04 0.  0.
        2    1    3    3  502    0 -0.54600179842E+03 -0.31640214995E+03 -0.36042899052E+03  0.72673058391E+03  0.25500000920E-02 0.  1.
       -2    1    3    3    0  502  0.54600179842E+03  0.31640214995E+03  0.85748775984E+03  0.10646659301E+04  0.25500000920E-02 0. -1.
</event>
<event>
 5   0  0.1269175E-04  0.1700291E+04  0.7818609E-02  0.8761198E-01
        2   -1    0    0  501    0  0.00000000000E+00  0.00000000000E+00  0.82266791651E+03  0.82266791651E+03  0.25500000920E-02 0.  1.
       -2   -1    0    0    0  501  0.00000000000E+00  0.00000000000E+00 -0.87854073989E+03  0.87854073990E+03  0.25500000920E-02 0. -1.
    10030    2    1    2    0    0  0.00000000000E+00  0.00000000000E+00 -0.55872823386E+02  0.17012086564E+04  0.17002908928E+04 0.  0.
        2    1    3    3  502    0 -0.40635517285E+03 -0.52134489943E+02  0.71738496225E+03  0.82612572628E+03  0.25500000920E-02 0.  1.
       -2    1    3    3    0  502  0.40635517285E+03  0.52134489943E+02 -0.77325778564E+03  0.87508293013E+03  0.25500000920E-02 0. -1.
</event>
<event>
 5   0  0.6564887E-05  0.1692580E+04  0.7818609E-02  0.8765608E-01
       -1   -1    0    0    0  501  0.00000000000E+00  0.00000000000E+00  0.67503374523E+03  0.67503374525E+03  0.50400001928E-02 0.  1.
        1   -1    0    0  501    0  0.00000000000E+00  0.00000000000E+00 -0.10609940396E+04  0.10609940396E+04  0.50400001928E-02 0. -1.
    10030    2    1    2    0    0  0.00000000000E+00  0.00000000000E+00 -0.38596029433E+03  0.17360277848E+04  0.16925800190E+04 0.  0.
        4    1    3    3  502    0  0.31933543003E+02  0.23599730850E+03  0.63995616429E+03  0.68283232634E+03  0.12699999809E+01 0.  1.
       -4    1    3    3    0  502 -0.31933543003E+02 -0.23599730850E+03 -0.10259164586E+04  0.10531954585E+04  0.12699999809E+01 0. -1.
</event>
<event>
 5   0  0.1255362E-04  0.1694526E+04  0.7818609E-02  0.8764492E-01
        2   -1    0    0  501    0  0.00000000000E+00  0.00000000000E+00  0.10290409387E+04  0.10290409387E+04  0.25500000920E-02 0. -1.
       -2   -1    0    0    0  501  0.00000000000E+00  0.00000000000E+00 -0.69759606521E+03  0.69759606522E+03  0.25500000920E-02 0.  1.
    10030    2    1    2    0    0  0.00000000000E+00  0.00000000000E+00  0.33144487348E+03  0.17266370039E+04  0.16945263760E+04 0.  0.
        1    1    3    3  502    0 -0.50058206309E+03 -0.25893202763E+03 -0.47890048898E+03  0.73957682170E+03  0.50400001928E-02 0.  1.
       -1    1    3    3    0  502  0.50058206309E+03  0.25893202763E+03  0.81034536246E+03  0.98706018221E+03  0.50400001928E-02 0. -1.
</event>
<event>
 5   0  0.6564887E-05  0.1701654E+04  0.7818609E-02  0.8760422E-01
       -1   -1    0    0    0  501  0.00000000000E+00  0.00000000000E+00  0.69999681066E+03  0.69999681068E+03  0.50400001928E-02 0.  1.
        1   -1    0    0  501    0  0.00000000000E+00  0.00000000000E+00 -0.10341571078E+04  0.10341571078E+04  0.50400001928E-02 0. -1.
    10030    2    1    2    0    0  0.00000000000E+00  0.00000000000E+00 -0.33416029716E+03  0.17341539185E+04  0.17016541096E+04 0.  0.
        4    1    3    3  502    0 -0.35211398364E+03 -0.77353238855E+03 -0.12672008956E+03  0.85929983568E+03  0.12699999809E+01 0. -1.
       -4    1    3    3    0  502  0.35211398364E+03  0.77353238855E+03 -0.20744020760E+03  0.87485408283E+03  0.12699999809E+01 0.  1.
</event>
<event>
 5   0  0.6615842E-05  0.1699376E+04  0.7818609E-02  0.8761720E-01
       -1   -1    0    0    0  501  0.00000000000E+00  0.00000000000E+00  0.59885048089E+03  0.59885048091E+03  0.50400001928E-02 0. -1.
        1   -1    0    0  501    0  0.00000000000E+00  0.00000000000E+00 -0.12055928171E+04  0.12055928171E+04  0.50400001928E-02 0.  1.
    10030    2    1    2    0    0  0.00000000000E+00  0.00000000000E+00 -0.60674233617E+03  0.18044432980E+04  0.16993761659E+04 0.  0.
        3    1    3    3  502    0 -0.19521010385E+03 -0.20131244216E+03  0.54830146557E+03  0.61584753905E+03  0.10100000352E+00 0. -1.
       -3    1    3    3    0  502  0.19521010385E+03  0.20131244216E+03 -0.11550438017E+04  0.11885957589E+04  0.10100000352E+00 0.  1.
</event>
<event>
 5   0  0.6539134E-05  0.1686952E+04  0.7818609E-02  0.8768841E-01
       -1   -1    0    0    0  501  0.00000000000E+00  0.00000000000E+00  0.40747743444E+03  0.40747743447E+03  0.50400001928E-02 0.  1.
        1   -1    0    0  501    0  0.00000000000E+00  0.00000000000E+00 -0.17459905713E+04  0.17459905713E+04  0.50400001928E-02 0. -1.
    10030    2    1    2    0    0  0.00000000000E+00  0.00000000000E+00 -0.13385131369E+04  0.21534680058E+04  0.16869519953E+04 0.  0.
        2    1    3    3  502    0  0.19667734363E+03 -0.32689194407E+03  0.29105007966E+03  0.47984421375E+03  0.25500000920E-02 0.  1.
       -2    1    3    3    0  502 -0.19667734363E+03  0.32689194407E+03 -0.16295632165E+04  0.16736237920E+04  0.25500000920E-02 0. -1.
</event>
<event>
 5   0  0.1255362E-04  0.1697861E+04  0.7818609E-02  0.8762585E-01
        2   -1    0    0  501    0  0.00000000000E+00  0.00000000000E+00  0.12989541694E+04  0.12989541694E+04  0.25500000920E-02 0.  1.
       -2   -1    0    0    0  501  0.00000000000E+00  0.00000000000E+00 -0.55481815372E+03  0.55481815372E+03  0.25500000920E-02 0. -1.
    10030    2    1    2    0    0  0.00000000000E+00  0.00000000000E+00  0.74413601563E+03  0.18537723231E+04  0.16978614243E+04 0.  0.
        1    1    3    3  502    0 -0.31884833550E+03 -0.19442291026E+03  0.12044525158E+04  0.12610195842E+04  0.50400001928E-02 0.  1.
       -1    1    3    3    0  502  0.31884833550E+03  0.19442291026E+03 -0.46031650013E+03  0.59275273884E+03  0.50400001928E-02 0. -1.
</event>
<event>
 5   0  0.1333546E-04  0.1704784E+04  0.7818609E-02  0.8758641E-01
       -2   -1    0    0    0  501  0.00000000000E+00  0.00000000000E+00  0.56262128986E+03  0.56262128986E+03  0.25500000920E-02 0. -1.
        2   -1    0    0  501    0  0.00000000000E+00  0.00000000000E+00 -0.12914051066E+04  0.12914051066E+04  0.25500000920E-02 0.  1.
    10030    2    1    2    0    0  0.00000000000E+00  0.00000000000E+00 -0.72878381670E+03  0.18540263964E+04  0.17047838652E+04 0.  0.
        5    1    3    3  502    0  0.37024488092E+03 -0.14896407863E+03  0.45472273626E+03  0.60503423493E+03  0.46999998093E+01 0.  1.
       -5    1    3    3    0  502 -0.37024488092E+03  0.14896407863E+03 -0.11835065530E+04  0.12489921615E+04  0.46999998093E+01 0. -1.
</event>
<event>
 5   0  0.6834837E-05  0.1657683E+04  0.7818609E-02  0.8785874E-01
        1   -1    0    0  501    0  0.00000000000E+00  0.00000000000E+00  0.16801544220E+04  0.16801544220E+04  0.50400001928E-02 0. -1.
       -1   -1    0    0    0  501  0.00000000000E+00  0.00000000000E+00 -0.40887823551E+03  0.40887823554E+03  0.50400001928E-02 0.  1.
    10030    2    1    2    0    0  0.00000000000E+00  0.00000000000E+00  0.12712761865E+04  0.20890326576E+04  0.16576834143E+04 0.  0.
        5    1    3    3  502    0 -0.17739836417E+03  0.66857291273E+03  0.60207310858E+02  0.69433920350E+03  0.46999998093E+01 0.  1.
       -5    1    3    3    0  502  0.17739836417E+03 -0.66857291273E+03  0.12110688757E+04  0.13946934541E+04  0.46999998093E+01 0. -1.
</event>
<event>
 5   0  0.1285639E-04  0.1707107E+04  0.7818609E-02  0.8757322E-01
        2   -1    0    0  501    0  0.00000000000E+00  0.00000000000E+00  0.10571371562E+04  0.10571371562E+04  0.25500000920E-02 0. -1.
       -2   -1    0    0    0  501  0.00000000000E+00  0.00000000000E+00 -0.68917562398E+03  0.68917562398E+03  0.25500000920E-02 0.  1.
    10030    2    1    2    0    0  0.00000000000E+00  0.00000000000E+00  0.36796153222E+03  0.17463127802E+04  0.17071065102E+04 0.  0.
        4    1    3    3  502    0 -0.73682542597E+03  0.40002703556E+03  0.20247926238E+02  0.83865662160E+03  0.12699999809E+01 0.  1.
       -4    1    3    3    0  502  0.73682542597E+03 -0.40002703556E+03  0.34771360598E+03  0.90765615859E+03  0.12699999809E+01 0. -1.
</event>
<event>
 5   0  0.6601906E-05  0.1698022E+04  0.7818609E-02  0.8762493E-01
       -1   -1    0    0    0  501  0.00000000000E+00  0.00000000000E+00  0.36752711006E+03  0.36752711009E+03  0.50400001928E-02 0.  1.
        1   -1    0    0  501    0  0.00000000000E+00  0.00000000000E+00 -0.19612691190E+04  0.19612691190E+04  0.50400001928E-02 0. -1.
    10030    2    1    2    0    0  0.00000000000E+00  0.00000000000E+00 -0.15937420089E+04  0.23287962291E+04  0.16980218743E+04 0.  0.
        1    1    3    3  502    0 -0.41393387125E+03 -0.73598397380E+03 -0.67569963072E+03  0.10814729079E+04  0.50400001928E-02 0.  1.
       -1    1    3    3    0  502  0.41393387125E+03  0.73598397380E+03 -0.91804237822E+03  0.12473233212E+04  0.50400001928E-02 0. -1.
</event>
<event>
 5   0  0.6834837E-05  0.1699136E+04  0.7818609E-02  0.8761857E-01
        1   -1    0    0  501    0  0.00000000000E+00  0.00000000000E+00  0.18883846256E+04  0.18883846256E+04  0.50400001928E-02 0. -1.
       -1   -1    0    0    0  501  0.00000000000E+00  0.00000000000E+00 -0.38221344826E+03  0.38221344829E+03  0.50400001928E-02 0.  1.
    10030    2    1    2    0    0  0.00000000000E+00  0.00000000000E+00  0.15061711774E+04  0.22705980739E+04  0.16991362505E+04 0.  0.
        5    1    3    3  502    0  0.94417239712E+02  0.33663748430E+03  0.17877708975E+04  0.18216438409E+04  0.46999998093E+01 0. -1.
       -5    1    3    3    0  502 -0.94417239712E+02 -0.33663748430E+03 -0.28159972015E+03  0.44895423305E+03  0.46999998093E+01 0.  1.
</event>
<event>
 5   0  0.6539134E-05  0.1696409E+04  0.7818609E-02  0.8763415E-01
        1   -1    0    0  501    0  0.00000000000E+00  0.00000000000E+00  0.80426256823E+03  0.80426256825E+03  0.50400001928E-02 0.  1.
       -1   -1    0    0    0  501  0.00000000000E+00  0.00000000000E+00 -0.89454707230E+03  0.89454707232E+03  0.50400001928E-02 0. -1.
    10030    2    1    2    0    0  0.00000000000E+00  0.00000000000E+00 -0.90284504068E+02  0.16988096406E+04  0.16964088255E+04 0.  0.
        2    1    3    3  502    0 -0.11484590655E+03 -0.70556666346E+03  0.41205269337E+03  0.82510685427E+03  0.25500000920E-02 0.  1.
       -2    1    3    3    0  502  0.11484590655E+03  0.70556666346E+03 -0.50233719744E+03  0.87370278630E+03  0.25500000920E-02 0. -1.
</event>
<event>
 5   0  0.6539134E-05  0.1697865E+04  0.7818609E-02  0.8762583E-01
        1   -1    0    0  501    0  0.00000000000E+00  0.00000000000E+00  0.70017903041E+03  0.70017903042E+03  0.50400001928E-02 0.  1.
       -1   -1    0    0    0  501  0.00000000000E+00  0.00000000000E+00 -0.10292883833E+04  0.10292883834E+04  0.50400001928E-02 0. -1.
    10030    2    1    2    0    0  0.00000000000E+00  0.00000000000E+00 -0.32910935293E+03  0.17294674138E+04  0.16978647087E+04 0.  0.
        2    1    3    3  502    0 -0.17660745887E+03 -0.40869646052E+03  0.57171537399E+03  0.72462504803E+03  0.25500000920E-02 0.  1.
       -2    1    3    3    0  502  0.17660745887E+03  0.40869646052E+03 -0.90082472692E+03  0.10048423658E+04  0.25500000920E-02 0. -1.
</event>
<event>
 5   0  0.6834837E-05  0.1699392E+04  0.7818609E-02  0.8761711E-01
       -1   -1    0    0    0  501  0.00000000000E+00  0.00000000000E+00  0.13605986919E+04  0.13605986919E+04  0.50400001928E-02 0.  1.
        1   -1    0    0  501    0  0.00000000000E+00  0.00000000000E+00 -0.53063623940E+03  0.53063623943E+03  0.50400001928E-02 0. -1.
    10030    2    1    2    0    0  0.00000000000E+00  0.00000000000E+00  0.82996245248E+03  0.18912349313E+04  0.16993916244E+04 0.  0.
        5    1    3    3  502    0 -0.69059735364E+03  0.48276935941E+03  0.53673928175E+03  0.99905060223E+03  0.46999998093E+01 0.  1.
       -5    1    3    3    0  502  0.69059735364E+03 -0.48276935941E+03  0.29322317073E+03  0.89218432909E+03  0.46999998093E+01 0. -1.
</event>
<event>
 5   0  0.6834837E-05  0.1689834E+04  0.7818609E-02  0.8767184E-01
       -1   -1    0    0    0  501  0.00000000000E+00  0.00000000000E+00  0.72515207796E+03  0.72515207798E+03  0.50400001928E-02 0.  1.
        1   -1    0    0  501    0  0.00000000000E+00  0.00000000000E+00 -0.98446184410E+03  0.98446184411E+03  0.50400001928E-02 0. -1.
    10030    2    1    2    0    0  0.00000000000E+00  0.00000000000E+00 -0.25930976614E+03  0.17096139221E+04  0.16898337811E+04 0.  0.
        5    1    3    3  502    0  0.26318929389E+02 -0.63616409646E+03  0.43224251091E+03  0.76957983465E+03  0.46999998093E+01 0.  1.
       -5    1    3    3    0  502 -0.26318929389E+02  0.63616409646E+03 -0.69155227705E+03  0.94003408744E+03  0.46999998093E+01 0. -1.
</event>
<event>
 5   0  0.6539134E-05  0.1697935E+04  0.7818609E-02  0.8762543E-01
        1   -1    0    0  501    0  0.00000000000E+00  0.00000000000E+00  0.89971069915E+03  0.89971069916E+03  0.50400001928E-02 0. -1.
       -1   -1    0    0    0  501  0.00000000000E+00  0.00000000000E+00 -0.80108621349E+03  0.80108621350E+03  0.50400001928E-02 0.  1.
    10030    2    1    2    0    0  0.00000000000E+00  0.00000000000E+00  0.98624485660E+02  0.17007969127E+04  0.16979350249E+04 0.  0.
        2    1    3    3  502    0 -0.41596167495E+02 -0.28694013166E+03 -0.74995556640E+03  0.80405113761E+03  0.25500000920E-02 0.  1.
       -2    1    3    3    0  502  0.41596167495E+02  0.28694013166E+03  0.84858005206E+03  0.89674577505E+03  0.25500000920E-02 0. -1.
</event>
<event>
 5   0  0.6539134E-05  0.1713877E+04  0.7818609E-02  0.8753489E-01
        1   -1    0    0  501    0  0.00000000000E+00  0.00000000000E+00  0.83576338463E+03  0.83576338465E+03  0.50400001928E-02 0. -1.
       -1   -1    0    0    0  501  0.00000000000E+00  0.00000000000E+00 -0.87865000264E+03  0.87865000265E+03  0.50400001928E-02 0.  1.
    10030    2    1    2    0    0  0.00000000000E+00  0.00000000000E+00 -0.42886618002E+02  0.17144133873E+04  0.17138768919E+04 0.  0.
        2    1    3    3  502    0 -0.14450423468E+03 -0.40969792835E+03 -0.76032846379E+03  0.87569015022E+03  0.25500000920E-02 0.  1.
       -2    1    3    3    0  502  0.14450423468E+03  0.40969792835E+03  0.71744184578E+03  0.83872323708E+03  0.25500000920E-02 0. -1.
</event>
<event>
 5   0  0.6539134E-05  0.1703065E+04  0.7818609E-02  0.8759618E-01
        1   -1    0    0  501    0  0.00000000000E+00  0.00000000000E+00  0.90514269357E+03  0.90514269358E+03  0.50400001928E-02 0.  1.
       -1   -1    0    0    0  501  0.00000000000E+00  0.00000000000E+00 -0.80109725854E+03  0.80109725856E+03  0.50400001928E-02 0. -1.
    10030    2    1    2    0    0  0.00000000000E+00  0.00000000000E+00  0.10404543503E+03  0.17062399521E+04  0.17030646851E+04 0.  0.
        2    1    3    3  502    0 -0.50318455997E+03  0.32160108327E+03  0.66018445022E+03  0.89020529456E+03  0.25500000920E-02 0.  1.
       -2    1    3    3    0  502  0.50318455997E+03 -0.32160108327E+03 -0.55613901519E+03  0.81603465758E+03  0.25500000920E-02 0. -1.
</event>
<event>
 5   0  0.1255362E-04  0.1696475E+04  0.7818609E-02  0.8763377E-01
       -2   -1    0    0    0  501  0.00000000000E+00  0.00000000000E+00  0.12349742141E+04  0.12349742141E+04  0.25500000920E-02 0.  1.
        2   -1    0    0  501    0  0.00000000000E+00  0.00000000000E+00 -0.58260870219E+03  0.58260870219E+03  0.25500000920E-02 0. -1.
    10030    2    1    2    0    0  0.00000000000E+00  0.00000000000E+00  0.65236551193E+03  0.18175829163E+04  0.16964748441E+04 0.  0.
        1    1    3    3  502    0  0.35658566861E+03 -0.45477248630E+03  0.99142362478E+03  0.11475592173E+04  0.50400001928E-02 0.  1.
       -1    1    3    3    0  502 -0.35658566861E+03  0.45477248630E+03 -0.33905811285E+03  0.67002369903E+03  0.50400001928E-02 0. -1.
</event>
<event>
 5   0  0.6834837E-05  0.1692486E+04  0.7818609E-02  0.8765661E-01
        1   -1    0    0  501    0  0.00000000000E+00  0.00000000000E+00  0.93804001546E+03  0.93804001547E+03  0.50400001928E-02 0. -1.
       -1   -1    0    0    0  501  0.00000000000E+00  0.00000000000E+00 -0.76342947381E+03  0.76342947383E+03  0.50400001928E-02 0.  1.
    10030    2    1    2    0    0  0.00000000000E+00  0.00000000000E+00  0.17461054165E+03  0.17014694893E+04  0.16924862132E+04 0.  0.
        5    1    3    3  502    0  0.21073998151E+03  0.53288469245E+03  0.71328826616E+03  0.91497523240E+03  0.46999998093E+01 0. -1.
       -5    1    3    3    0  502 -0.21073998151E+03 -0.53288469245E+03 -0.53867772451E+03  0.78649425691E+03  0.46999998093E+01 0.  1.
</event>
<event>
 5   0  0.6539134E-05  0.1702850E+04  0.7818609E-02  0.8759740E-01
       -1   -1    0    0    0  501  0.00000000000E+00  0.00000000000E+00  0.98352318804E+03  0.98352318805E+03  0.50400001928E-02 0. -1.
        1   -1    0    0  501    0  0.00000000000E+00  0.00000000000E+00 -0.73706935764E+03  0.73706935766E+03  0.50400001928E-02 0.  1.
    10030    2    1    2    0    0  0.00000000000E+00  0.00000000000E+00  0.24645383039E+03  0.17205925457E+04  0.17028503216E+04 0.  0.
        2    1    3    3  502    0  0.56311802594E+03 -0.61451556145E+03 -0.52346364028E+02  0.83514754878E+03  0.25500000920E-02 0.  1.
       -2    1    3    3    0  502 -0.56311802594E+03  0.61451556145E+03  0.29880019442E+03  0.88544499693E+03  0.25500000920E-02 0. -1.
</event>
<event>
 5   0  0.6601906E-05  0.1697021E+04  0.7818609E-02  0.8763065E-01
       -1   -1    0    0    0  501  0.00000000000E+00  0.00000000000E+00  0.38850959912E+03  0.38850959915E+03  0.50400001928E-02 0. -1.
        1   -1    0    0  501    0  0.00000000000E+00  0.00000000000E+00 -0.18531585988E+04  0.18531585988E+04  0.50400001928E-02 0.  1.
    10030    2    1    2    0    0  0.00000000000E+00  0.00000000000E+00 -0.14646489997E+04  0.22416681980E+04  0.16970208064E+04 0.  0.
        1    1    3    3  502    0 -0.27758356270E+03  0.57449302347E+03 -0.14711971989E+04  0.16035947326E+04  0.50400001928E-02 0.  1.
       -1    1    3    3    0  502  0.27758356270E+03 -0.57449302347E+03  0.65481992139E+01  0.63807346538E+03  0.50400001928E-02 0. -1.
</event>
<event>
 5   0  0.1333546E-04  0.1689167E+04  0.7818609E-02  0.8767567E-01
       -2   -1    0    0    0  501  0.00000000000E+00  0.00000000000E+00  0.64605157645E+03  0.64605157646E+03  0.25500000920E-02 0.  1.
        2   -1    0    0  501    0  0.00000000000E+00  0.00000000000E+00 -0.11041237313E+04  0.11041237313E+04  0.25500000920E-02 0. -1.
    10030    2    1    2    0    0  0.00000000000E+00  0.00000000000E+00 -0.45807215487E+03  0.17501753078E+04  0.16891665131E+04 0.  0.
        5    1    3    3  502    0  0.76522775181E+02  0.55339240877E+03  0.42724441305E+03  0.70331982176E+03  0.46999998093E+01 0.  1.
       -5    1    3    3    0  502 -0.76522775181E+02 -0.55339240877E+03 -0.88531656792E+03  0.10468554860E+04  0.46999998093E+01 0. -1.
</event>
<event>
 5   0  0.1333546E-04  0.1615503E+04  0.7818609E-02  0.8811080E-01
       -2   -1    0    0    0  501  0.00000000000E+00  0.00000000000E+00  0.64478907682E+03  0.64478907683E+03  0.25500000920E-02 0.  1.
        2   -1    0    0  501    0  0.00000000000E+00  0.00000000000E+00 -0.10119009944E+04  0.10119009944E+04  0.25500000920E-02 0. -1.
    10030    2    1    2    0    0  0.00000000000E+00  0.00000000000E+00 -0.36711191760E+03  0.16566900713E+04  0.16155032752E+04 0.  0.
        5    1    3    3  502    0 -0.59684739445E+03  0.51544012518E+03 -0.36275447209E+03  0.86805427937E+03  0.46999998093E+01 0. -1.
       -5    1    3    3    0  502  0.59684739445E+03 -0.51544012518E+03 -0.43574455093E+01  0.78863579188E+03  0.46999998093E+01 0.  1.
</event>
<event>
 5   0  0.1285639E-04  0.1697535E+04  0.7818609E-02  0.8762772E-01
        2   -1    0    0  501    0  0.00000000000E+00  0.00000000000E+00  0.46475081138E+03  0.46475081138E+03  0.25500000920E-02 0. -1.
       -2   -1    0    0    0  501  0.00000000000E+00  0.00000000000E+00 -0.15500911797E+04  0.15500911797E+04  0.25500000920E-02 0.  1.
    10030    2    1    2    0    0  0.00000000000E+00  0.00000000000E+00 -0.10853403683E+04  0.20148419911E+04  0.16975348403E+04 0.  0.
        4    1    3    3  502    0 -0.22203746683E+03  0.55908852368E+03 -0.12533620697E+04  0.13902513099E+04  0.12699999809E+01 0.  1.
       -4    1    3    3    0  502  0.22203746683E+03 -0.55908852368E+03  0.16802170139E+03  0.62459068119E+03  0.12699999809E+01 0. -1.
</event>
<event>
 5   0  0.6834837E-05  0.1697078E+04  0.7818609E-02  0.8763032E-01
       -1   -1    0    0    0  501  0.00000000000E+00  0.00000000000E+00  0.78190328453E+03  0.78190328454E+03  0.50400001928E-02 0. -1.
        1   -1    0    0  501    0  0.00000000000E+00  0.00000000000E+00 -0.92085409466E+03  0.92085409467E+03  0.50400001928E-02 0.  1.
    10030    2    1    2    0    0  0.00000000000E+00  0.00000000000E+00 -0.13895081013E+03  0.17027573792E+04  0.16970784793E+04 0.  0.
        5    1    3    3  502    0  0.55441317331E+03  0.58769857847E+03 -0.32963666310E+03  0.87260873566E+03  0.46999998093E+01 0. -1.
       -5    1    3    3    0  502 -0.55441317331E+03 -0.58769857847E+03  0.19068585297E+03  0.83014864356E+03  0.46999998093E+01 0.  1.
</event>
<event>
 5   0  0.1269175E-04  0.1702882E+04  0.7818609E-02  0.8759722E-01
       -2   -1    0    0    0  501  0.00000000000E+00  0.00000000000E+00  0.37348537822E+03  0.37348537823E+03  0.25500000920E-02 0. -1.
        2   -1    0    0  501    0  0.00000000000E+00  0.00000000000E+00 -0.19410455113E+04  0.19410455113E+04  0.25500000920E-02 0.  1.
    10030    2    1    2    0    0  0.00000000000E+00  0.00000000000E+00 -0.15675601331E+04  0.23145308896E+04  0.17028823999E+04 0.  0.
        2    1    3    3  502    0  0.39131545980E+03  0.75616981333E+03 -0.77614666803E+03  0.11520955802E+04  0.25500000920E-02 0.  1.
       -2    1    3    3    0  502 -0.39131545980E+03 -0.75616981333E+03 -0.79141346508E+03  0.11624353093E+04  0.25500000920E-02 0. -1.
</event>
<event>
 5   0  0.6539134E-05  0.1705683E+04  0.7818609E-02  0.8758130E-01
       -1   -1    0    0    0  501  0.00000000000E+00  0.00000000000E+00  0.59324396100E+03  0.59324396102E+03  0.50400001928E-02 0. -1.
        1   -1    0    0  501    0  0.00000000000E+00  0.00000000000E+00 -0.12260362036E+04  0.12260362036E+04  0.50400001928E-02 0.  1.
    10030    2    1    2    0    0  0.00000000000E+00  0.00000000000E+00 -0.63279224263E+03  0.18192801647E+04  0.17056829410E+04 0.  0.
        2    1    3    3  502    0  0.51506073337E+03  0.42076246063E+03  0.25302202346E+03  0.71158186577E+03  0.25500000920E-02 0. -1.
       -2    1    3    3    0  502 -0.51506073337E+03 -0.42076246063E+03 -0.88581426609E+03  0.11076982989E+04  0.25500000920E-02 0.  1.
</event>
<event>
 5   0  0.1269175E-04  0.1693569E+04  0.7818609E-02  0.8765040E-01
        2   -1    0    0  501    0  0.00000000000E+00  0.00000000000E+00  0.13078506995E+04  0.13078506995E+04  0.25500000920E-02 0. -1.
       -2   -1    0    0    0  501  0.00000000000E+00  0.00000000000E+00 -0.54826164436E+03  0.54826164437E+03  0.25500000920E-02 0.  1.
    10030    2    1    2    0    0  0.00000000000E+00  0.00000000000E+00  0.75958905517E+03  0.18561123439E+04  0.16935694555E+04 0.  0.
        2    1    3    3  502    0 -0.74064196362E+02 -0.79919358000E+03  0.67560362653E+03  0.10491120739E+04  0.25500000920E-02 0. -1.
       -2    1    3    3    0  502  0.74064196362E+02  0.79919358000E+03  0.83985428637E+02  0.80700026997E+03  0.25500000920E-02 0.  1.
</event>
<event>
 5   0  0.6834837E-05  0.1695255E+04  0.7818609E-02  0.8764075E-01
        1   -1    0    0  501    0  0.00000000000E+00  0.00000000000E+00  0.14728712585E+04  0.14728712586E+04  0.50400001928E-02 0. -1.
       -1   -1    0    0    0  501  0.00000000000E+00  0.00000000000E+00 -0.48780384912E+03  0.48780384915E+03  0.50400001928E-02 0.  1.
    10030    2    1    2    0    0  0.00000000000E+00  0.00000000000E+00  0.98506740943E+03  0.19606751077E+04  0.16952548708E+04 0.  0.
        5    1    3    3  502    0 -0.82395255641E+03  0.84110562652E+02  0.70096541096E+03  0.10850562194E+04  0.46999998093E+01 0. -1.
       -5    1    3    3    0  502  0.82395255641E+03 -0.84110562652E+02  0.28410199847E+03  0.87561888827E+03  0.46999998093E+01 0.  1.
</event>
<event>
 5   0  0.1285639E-04  0.1684115E+04  0.7818609E-02  0.8770476E-01
       -2   -1    0    0    0  501  0.00000000000E+00  0.00000000000E+00  0.12946385159E+04  0.12946385159E+04  0.25500000920E-02 0. -1.
        2   -1    0    0  501    0  0.00000000000E+00  0.00000000000E+00 -0.54769046659E+03  0.54769046659E+03  0.25500000920E-02 0.  1.
    10030    2    1    2    0    0  0.00000000000E+00  0.00000000000E+00  0.74694804927E+03  0.18423289825E+04  0.16841154032E+04 0.  0.
        4    1    3    3  502    0 -0.61672722856E+02 -0.29478590760E+02 -0.54464929238E+03  0.54892347067E+03  0.12699999809E+01 0.  1.
       -4    1    3    3    0  502  0.61672722856E+02  0.29478590760E+02  0.12915973416E+04  0.12934055118E+04  0.12699999809E+01 0. -1.
</event>
<event>
 5   0  0.6601906E-05  0.1701124E+04  0.7818609E-02  0.8760724E-01
       -1   -1    0    0    0  501  0.00000000000E+00  0.00000000000E+00  0.52795301942E+03  0.52795301945E+03  0.50400001928E-02 0. -1.
        1   -1    0    0  501    0  0.00000000000E+00  0.00000000000E+00 -0.13703025698E+04  0.13703025698E+04  0.50400001928E-02 0.  1.
    10030    2    1    2    0    0  0.00000000000E+00  0.00000000000E+00 -0.84234955040E+03  0.18982555893E+04  0.17011236043E+04 0.  0.
        1    1    3    3  502    0 -0.78435045054E+03  0.32455836360E+03 -0.36096235817E+03  0.92240857796E+03  0.50400001928E-02 0.  1.
       -1    1    3    3    0  502  0.78435045054E+03 -0.32455836360E+03 -0.48138719223E+03  0.97584701132E+03  0.50400001928E-02 0. -1.
</event>
<event>
 5   0  0.6834837E-05  0.1695008E+04  0.7818609E-02  0.8764217E-01
        1   -1    0    0  501    0  0.00000000000E+00  0.00000000000E+00  0.16670540084E+04  0.16670540084E+04  0.50400001928E-02 0.  1.
       -1   -1    0    0    0  501  0.00000000000E+00  0.00000000000E+00 -0.43085751849E+03  0.43085751852E+03  0.50400001928E-02 0. -1.
    10030    2    1    2    0    0  0.00000000000E+00  0.00000000000E+00  0.12361964899E+04  0.20979115270E+04  0.16950076735E+04 0.  0.
        5    1    3    3  502    0  0.55793507038E+03  0.10631445836E+03  0.13966170115E+04  0.15076987344E+04  0.46999998093E+01 0.  1.
       -5    1    3    3    0  502 -0.55793507038E+03 -0.10631445836E+03 -0.16042052154E+03  0.59021279260E+03  0.46999998093E+01 0. -1.
</event>
<event>
 5   0  0.6601906E-05  0.1732213E+04  0.7818609E-02  0.8743203E-01
        1   -1    0    0  501    0  0.00000000000E+00  0.00000000000E+00  0.14514977678E+04  0.14514977678E+04  0.50400001928E-02 0. -1.
       -1   -1    0    0    0  501  0.00000000000E+00  0.00000000000E+00 -0.51680430964E+03  0.51680430966E+03  0.50400001928E-02 0.  1.
    10030    2    1    2    0    0  0.00000000000E+00  0.00000000000E+00  0.93469345816E+03  0.19683020775E+04  0.17322128066E+04 0.  0.
        1    1    3    3  502    0  0.57201253634E+03 -0.64451568118E+03  0.36866896920E+03  0.93729163759E+03  0.50400001928E-02 0.  1.
       -1    1    3    3    0  502 -0.57201253634E+03  0.64451568118E+03  0.56602448897E+03  0.10310104399E+04  0.50400001928E-02 0. -1.
</event>
<event>
 5   0  0.1269175E-04  0.1700165E+04  0.7818609E-02  0.8761270E-01
        2   -1    0    0  501    0  0.00000000000E+00  0.00000000000E+00  0.11145659237E+04  0.11145659238E+04  0.25500000920E-02 0. -1.
       -2   -1    0    0    0  501  0.00000000000E+00  0.00000000000E+00 -0.64836062927E+03  0.64836062927E+03  0.25500000920E-02 0.  1.
    10030    2    1    2    0    0  0.00000000000E+00  0.00000000000E+00  0.46620529448E+03  0.17629265530E+04  0.17001654786E+04 0.  0.
        2    1    3    3  502    0 -0.50517230228E+03  0.60019084542E+03 -0.10641773717E+03  0.79167723266E+03  0.25500000920E-02 0.  1.
       -2    1    3    3    0  502  0.50517230228E+03 -0.60019084542E+03  0.57262303165E+03  0.97124932036E+03  0.25500000920E-02 0. -1.
</event>
<event>
 5   0  0.1393870E-04  0.1701678E+04  0.7818609E-02  0.8760408E-01
       -2   -1    0    0    0  501  0.00000000000E+00  0.00000000000E+00  0.44913041895E+03  0.44913041896E+03  0.25500000920E-02 0. -1.
        2   -1    0    0  501    0  0.00000000000E+00  0.00000000000E+00 -0.16118407953E+04  0.16118407953E+04  0.25500000920E-02 0.  1.
    10030    2    1    2    0    0  0.00000000000E+00  0.00000000000E+00 -0.11627103763E+04  0.20609712142E+04  0.17016776800E+04 0.  0.
        3    1    3    3  502    0 -0.78170475090E+03  0.27189054166E+03 -0.82035207678E+03  0.11653172634E+04  0.10100000352E+00 0. -1.
       -3    1    3    3    0  502  0.78170475090E+03 -0.27189054166E+03 -0.34235829955E+03  0.89565395086E+03  0.10100000352E+00 0.  1.
</event>
<event>
 5   0  0.6834837E-05  0.1699200E+04  0.7818609E-02  0.8761821E-01
       -1   -1    0    0    0  501  0.00000000000E+00  0.00000000000E+00  0.51657372389E+03  0.51657372391E+03  0.50400001928E-02 0. -1.
        1   -1    0    0  501    0  0.00000000000E+00  0.00000000000E+00 -0.13973218356E+04  0.13973218356E+04  0.50400001928E-02 0.  1.
    10030    2    1    2    0    0  0.00000000000E+00  0.00000000000E+00 -0.88074811169E+03  0.19138955595E+04  0.16991995105E+04 0.  0.
        5    1    3    3  502    0  0.83171327981E+03 -0.16810569497E+03 -0.48804346757E+03  0.97888457988E+03  0.46999998093E+01 0. -1.
       -5    1    3    3    0  502 -0.83171327981E+03  0.16810569497E+03 -0.39270464412E+03  0.93501097962E+03  0.46999998093E+01 0.  1.
</event>
<event>
 5   0  0.1333546E-04  0.1750244E+04  0.7818609E-02  0.8733216E-01
       -2   -1    0    0    0  501  0.00000000000E+00  0.00000000000E+00  0.46612292113E+03  0.46612292114E+03  0.25500000920E-02 0. -1.
        2   -1    0    0  501    0  0.00000000000E+00  0.00000000000E+00 -0.16429959716E+04  0.16429959716E+04  0.25500000920E-02 0.  1.
    10030    2    1    2    0    0  0.00000000000E+00  0.00000000000E+00 -0.11768730505E+04  0.21091188928E+04  0.17502435050E+04 0.  0.
        5    1    3    3  502    0  0.78482254241E+03 -0.27169958396E+03 -0.25612219538E+03  0.86913045969E+03  0.46999998093E+01 0. -1.
       -5    1    3    3    0  502 -0.78482254241E+03  0.27169958396E+03 -0.92075085512E+03  0.12399884331E+04  0.46999998093E+01 0.  1.
</event>
<event>
 5   0  0.1333546E-04  0.1693226E+04  0.7818609E-02  0.8765237E-01
        2   -1    0    0  501    0  0.00000000000E+00  0.00000000000E+00  0.14066031165E+04  0.14066031165E+04  0.25500000920E-02 0. -1.
       -2   -1    0    0    0  501  0.00000000000E+00  0.00000000000E+00 -0.50956348816E+03  0.50956348817E+03  0.25500000920E-02 0.  1.
    10030    2    1    2    0    0  0.00000000000E+00  0.00000000000E+00  0.89703962830E+03  0.19161666046E+04  0.16932260221E+04 0.  0.
        5    1    3    3  502    0 -0.56363991087E+03 -0.27466837518E+03  0.10922765814E+04  0.12594534075E+04  0.46999998093E+01 0. -1.
       -5    1    3    3    0  502  0.56363991087E+03  0.27466837518E+03 -0.19523695307E+03  0.65671319714E+03  0.46999998093E+01 0.  1.
</event>
<event>
 5   0  0.1333546E-04  0.1701072E+04  0.7818609E-02  0.8760753E-01
        2   -1    0    0  501    0  0.00000000000E+00  0.00000000000E+00  0.13292544496E+04  0.13292544496E+04  0.25500000920E-02 0. -1.
       -2   -1    0    0    0  501  0.00000000000E+00  0.00000000000E+00 -0.54422335999E+03  0.54422336000E+03  0.25500000920E-02 0.  1.
    10030    2    1    2    0    0  0.00000000000E+00  0.00000000000E+00  0.78503108956E+03  0.18734778096E+04  0.17010718066E+04 0.  0.
        5    1    3    3  502    0 -0.44823732732E+03  0.57593273575E+03  0.87356033644E+03  0.11383079412E+04  0.46999998093E+01 0. -1.
       -5    1    3    3    0  502  0.44823732732E+03 -0.57593273575E+03 -0.88529246872E+02  0.73516986831E+03  0.46999998093E+01 0.  1.
</event>
<event>
 5   0  0.6601906E-05  0.1705779E+04  0.7818609E-02  0.8758075E-01
       -1   -1    0    0    0  501  0.00000000000E+00  0.00000000000E+00  0.72133519411E+03  0.72133519413E+03  0.50400001928E-02 0.  1.
        1   -1    0    0  501    0  0.00000000000E+00  0.00000000000E+00 -0.10084366141E+04  0.10084366141E+04  0.50400001928E-02 0. -1.
    10030    2    1    2    0    0  0.00000000000E+00  0.00000000000E+00 -0.28710142002E+03  0.17297718083E+04  0.17057793771E+04 0.  0.
        1    1    3    3  502    0  0.74177640704E+03  0.17556037767E+03 -0.53151141830E+03  0.92927825331E+03  0.50400001928E-02 0.  1.
       -1    1    3    3    0  502 -0.74177640704E+03 -0.17556037767E+03  0.24440999828E+03  0.80049355496E+03  0.50400001928E-02 0. -1.
</event>
<event>
 5   0  0.1285639E-04  0.1681922E+04  0.7818609E-02  0.8771743E-01
        2   -1    0    0  501    0  0.00000000000E+00  0.00000000000E+00  0.30615295296E+04  0.30615295296E+04  0.25500000920E-02 0. -1.
       -2   -1    0    0    0  501  0.00000000000E+00  0.00000000000E+00 -0.23100063127E+03  0.23100063128E+03  0.25500000920E-02 0.  1.
    10030    2    1    2    0    0  0.00000000000E+00  0.00000000000E+00  0.28305288983E+04  0.32925301608E+04  0.16819218222E+04 0.  0.
        4    1    3    3  502    0 -0.67536130517E+03  0.49639231981E+03  0.12811236546E+04  0.15309466545E+04  0.12699999809E+01 0.  1.
       -4    1    3    3    0  502  0.67536130517E+03 -0.49639231981E+03  0.15494052437E+04  0.17615835063E+04  0.12699999809E+01 0. -1.
</event>
<event>
 5   0  0.6601906E-05  0.1696542E+04  0.7818609E-02  0.8763339E-01
        1   -1    0    0  501    0  0.00000000000E+00  0.00000000000E+00  0.13502246198E+04  0.13502246198E+04  0.50400001928E-02 0. -1.
       -1   -1    0    0    0  501  0.00000000000E+00  0.00000000000E+00 -0.53292152485E+03  0.53292152487E+03  0.50400001928E-02 0.  1.
    10030    2    1    2    0    0  0.00000000000E+00  0.00000000000E+00  0.81730309491E+03  0.18831461446E+04  0.16965420870E+04 0.  0.
        1    1    3    3  502    0  0.30296789140E+03 -0.32724669969E+03 -0.39230033743E+03  0.59395243955E+03  0.50400001928E-02 0.  1.
       -1    1    3    3    0  502 -0.30296789140E+03  0.32724669969E+03  0.12096034323E+04  0.12891937051E+04  0.50400001928E-02 0. -1.
</event>
<event>
 5   0  0.6615842E-05  0.1699322E+04  0.7818609E-02  0.8761751E-01
       -1   -1    0    0    0  501  0.00000000000E+00  0.00000000000E+00  0.36582063642E+03  0.36582063645E+03  0.50400001928E-02 0. -1.
        1   -1    0    0  501    0  0.00000000000E+00  0.00000000000E+00 -0.19734372953E+04  0.19734372954E+04  0.50400001928E-02 0.  1.
    10030    2    1    2    0    0  0.00000000000E+00  0.00000000000E+00 -0.16076166589E+04  0.23392579318E+04  0.16993223207E+04 0.  0.
        3    1    3    3  502    0 -0.10683612166E+03  0.51220188537E+03  0.11774098221E+03  0.53630931127E+03  0.10100000352E+00 0. -1.
       -3    1    3    3    0  502  0.10683612166E+03 -0.51220188537E+03 -0.17253576411E+04  0.18029486205E+04  0.10100000352E+00 0.  1.
</event>
<event>
 5   0  0.6539134E-05  0.1700048E+04  0.7818609E-02  0.8761337E-01
       -1   -1    0    0    0  501  0.00000000000E+00  0.00000000000E+00  0.78100117368E+03  0.78100117370E+03  0.50400001928E-02 0.  1.
        1   -1    0    0  501    0  0.00000000000E+00  0.00000000000E+00 -0.92514696543E+03  0.92514696544E+03  0.50400001928E-02 0. -1.
    10030    2    1    2    0    0  0.00000000000E+00  0.00000000000E+00 -0.14414579175E+03  0.17061481391E+04  0.17000480768E+04 0.  0.
        2    1    3    3  502    0 -0.67804289598E+03 -0.46546861461E+03  0.14349463300E+03  0.83486161110E+03  0.25500000920E-02 0.  1.
       -2    1    3    3    0  502  0.67804289598E+03  0.46546861461E+03 -0.28764042475E+03  0.87128652804E+03  0.25500000920E-02 0. -1.
</event>
<event>
 5   0  0.1285639E-04  0.1680986E+04  0.7818609E-02  0.8772283E-01
       -2   -1    0    0    0  501  0.00000000000E+00  0.00000000000E+00  0.26124064540E+03  0.26124064541E+03  0.25500000920E-02 0.  1.
        2   -1    0    0  501    0  0.00000000000E+00  0.00000000000E+00 -0.27041306902E+04  0.27041306902E+04  0.25500000920E-02 0. -1.
    10030    2    1    2    0    0  0.00000000000E+00  0.00000000000E+00 -0.24428900448E+04  0.29653713356E+04  0.16809864327E+04 0.  0.
        4    1    3    3  502    0 -0.69734572247E+03  0.43233026406E+03 -0.89988754514E+03  0.12177847596E+04  0.12699999809E+01 0.  1.
       -4    1    3    3    0  502  0.69734572247E+03 -0.43233026406E+03 -0.15430024996E+04  0.17475865760E+04  0.12699999809E+01 0. -1.
</event>
<event>
 5   0  0.6564887E-05  0.1689489E+04  0.7818609E-02  0.8767382E-01
       -1   -1    0    0    0  501  0.00000000000E+00  0.00000000000E+00  0.89229898790E+03  0.89229898791E+03  0.50400001928E-02 0. -1.
        1   -1    0    0  501    0  0.00000000000E+00  0.00000000000E+00 -0.79972481652E+03  0.79972481653E+03  0.50400001928E-02 0.  1.
    10030    2    1    2    0    0  0.00000000000E+00  0.00000000000E+00  0.92574171381E+02  0.16920238044E+04  0.16894894429E+04 0.  0.
        4    1    3    3  502    0  0.60184262621E+03  0.57759646318E+03 -0.87178762277E+02  0.83870970574E+03  0.12699999809E+01 0.  1.
       -4    1    3    3    0  502 -0.60184262621E+03 -0.57759646318E+03  0.17975293366E+03  0.85331409871E+03  0.12699999809E+01 0. -1.
</event>
<event>
 5   0  0.6615842E-05  0.1698270E+04  0.7818609E-02  0.8762351E-01
        1   -1    0    0  501    0  0.00000000000E+00  0.00000000000E+00  0.70890761213E+03  0.70890761214E+03  0.50400001928E-02 0. -1.
       -1   -1    0    0    0  501  0.00000000000E+00  0.00000000000E+00 -0.10171008676E+04  0.10171008676E+04  0.50400001928E-02 0.  1.
    10030    2    1    2    0    0  0.00000000000E+00  0.00000000000E+00 -0.30819325545E+03  0.17260084797E+04  0.16982703523E+04 0.  0.
        3    1    3    3  502    0 -0.45346500273E+02 -0.53641279245E+03  0.51331439355E+03  0.74383241784E+03  0.10100000352E+00 0. -1.
       -3    1    3    3    0  502  0.45346500273E+02  0.53641279245E+03 -0.82150764900E+03  0.98217606190E+03  0.10100000352E+00 0.  1.
</event>
<event>
 5   0  0.1255362E-04  0.1702329E+04  0.7818609E-02  0.8760037E-01
        2   -1    0    0  501    0  0.00000000000E+00  0.00000000000E+00  0.21380038920E+04  0.21380038920E+04  0.25500000920E-02 0.  1.
       -2   -1    0    0    0  501  0.00000000000E+00  0.00000000000E+00 -0.33885876409E+03  0.33885876409E+03  0.25500000920E-02 0. -1.
    10030    2    1    2    0    0  0.00000000000E+00  0.00000000000E+00  0.17991451279E+04  0.24768626560E+04  0.17023294117E+04 0.  0.
        1    1    3    3  502    0 -0.36292306782E+03  0.56390126678E+03  0.13687264686E+03  0.68442085979E+03  0.50400001928E-02 0. -1.
       -1    1    3    3    0  502  0.36292306782E+03 -0.56390126678E+03  0.16622724810E+04  0.17924417963E+04  0.50400001928E-02 0.  1.
</event>
<event>
 5   0  0.1333546E-04  0.1712102E+04  0.7818609E-02  0.8754492E-01
        2   -1    0    0  501    0  0.00000000000E+00  0.00000000000E+00  0.15155257382E+04  0.15155257382E+04  0.25500000920E-02 0.  1.
       -2   -1    0    0    0  501  0.00000000000E+00  0.00000000000E+00 -0.48354411683E+03  0.48354411684E+03  0.25500000920E-02 0. -1.
    10030    2    1    2    0    0  0.00000000000E+00  0.00000000000E+00  0.10319816213E+04  0.19990698550E+04  0.17121022804E+04 0.  0.
        5    1    3    3  502    0  0.57992580786E+03 -0.49265396228E+03  0.58115083323E+02  0.76316533077E+03  0.46999998093E+01 0. -1.
       -5    1    3    3    0  502 -0.57992580786E+03  0.49265396228E+03  0.97386653801E+03  0.12359045242E+04  0.46999998093E+01 0.  1.
</event>
<event>
 5   0  0.6564887E-05  0.1692595E+04  0.7818609E-02  0.8765599E-01
       -1   -1    0    0    0  501  0.00000000000E+00  0.00000000000E+00  0.35409159623E+03  0.35409159627E+03  0.50400001928E-02 0.  1.
        1   -1    0    0  501    0  0.00000000000E+00  0.00000000000E+00 -0.20226948731E+04  0.20226948731E+04  0.50400001928E-02 0. -1.
    10030    2    1    2    0    0  0.00000000000E+00  0.00000000000E+00 -0.16686032768E+04  0.23767864693E+04  0.16925947611E+04 0.  0.
        4    1    3    3  502    0  0.59904923599E+03  0.37187624726E+03 -0.17706104538E+03  0.72698291390E+03  0.12699999809E+01 0.  1.
       -4    1    3    3    0  502 -0.59904923599E+03 -0.37187624726E+03 -0.14915422314E+04  0.16498035554E+04  0.12699999809E+01 0. -1.
</event>
<event>
 5   0  0.1285639E-04  0.1699348E+04  0.7818609E-02  0.8761737E-01
        2   -1    0    0  501    0  0.00000000000E+00  0.00000000000E+00  0.84976845667E+03  0.84976845668E+03  0.25500000920E-02 0. -1.
       -2   -1    0    0    0  501  0.00000000000E+00  0.00000000000E+00 -0.84957911255E+03  0.84957911255E+03  0.25500000920E-02 0.  1.
    10030    2    1    2    0    0  0.00000000000E+00  0.00000000000E+00  0.18934412594E+00  0.16993475692E+04  0.16993475587E+04 0.  0.
        4    1    3    3  502    0 -0.12901530026E+03  0.76006797535E+03  0.35729999835E+03  0.84971358502E+03  0.12699999809E+01 0. -1.
       -4    1    3    3    0  502  0.12901530026E+03 -0.76006797535E+03 -0.35711065422E+03  0.84963398420E+03  0.12699999809E+01 0.  1.
</event>
<event>
 5   0  0.1269175E-04  0.1702949E+04  0.7818609E-02  0.8759684E-01
        2   -1    0    0  501    0  0.00000000000E+00  0.00000000000E+00  0.48217781265E+03  0.48217781266E+03  0.25500000920E-02 0.  1.
       -2   -1    0    0    0  501  0.00000000000E+00  0.00000000000E+00 -0.15036135396E+04  0.15036135396E+04  0.25500000920E-02 0. -1.
    10030    2    1    2    0    0  0.00000000000E+00  0.00000000000E+00 -0.10214357270E+04  0.19857913523E+04  0.17029493094E+04 0.  0.
        2    1    3    3  502    0 -0.78791521869E+03  0.77479673280E+02 -0.87612573580E+03  0.11808513016E+04  0.25500000920E-02 0. -1.
       -2    1    3    3    0  502  0.78791521869E+03 -0.77479673280E+02 -0.14530999116E+03  0.80494005065E+03  0.25500000920E-02 0.  1.
</event>
<event>
 5   0  0.6601906E-05  0.1678188E+04  0.7818609E-02  0.8773903E-01
       -1   -1    0    0    0  501  0.00000000000E+00  0.00000000000E+00  0.66834773567E+03  0.66834773569E+03  0.50400001928E-02 0. -1.
        1   -1    0    0  501    0  0.00000000000E+00  0.00000000000E+00 -0.10534613204E+04  0.10534613205E+04  0.50400001928E-02 0.  1.
    10030    2    1    2    0    0  0.00000000000E+00  0.00000000000E+00 -0.38511358477E+03  0.17218090561E+04  0.16781876989E+04 0.  0.
        1    1    3    3  502    0 -0.80265503928E+02 -0.70149220980E+03  0.27259800852E+03  0.75686428493E+03  0.50400001928E-02 0. -1.
       -1    1    3    3    0  502  0.80265503928E+02  0.70149220980E+03 -0.65771159329E+03  0.96494477122E+03  0.50400001928E-02 0.  1.
</event>
<event>
 5   0  0.1269175E-04  0.1703491E+04  0.7818609E-02  0.8759376E-01
       -2   -1    0    0    0  501  0.00000000000E+00  0.00000000000E+00  0.48842673655E+03  0.48842673655E+03  0.25500000920E-02 0.  1.
        2   -1    0    0  501    0  0.00000000000E+00  0.00000000000E+00 -0.14853200085E+04  0.14853200085E+04  0.25500000920E-02 0. -1.
    10030    2    1    2    0    0  0.00000000000E+00  0.00000000000E+00 -0.99689327198E+03  0.19737467451E+04  0.17034905394E+04 0.  0.
        2    1    3    3  502    0  0.14754313804E+03  0.41642916571E+03  0.34529116978E+03  0.56072116027E+03  0.25500000920E-02 0.  1.
       -2    1    3    3    0  502 -0.14754313804E+03 -0.41642916571E+03 -0.13421844418E+04  0.14130255848E+04  0.25500000920E-02 0. -1.
</event>
<event>
 5   0  0.6539134E-05  0.1699658E+04  0.7818609E-02  0.8761560E-01
       -1   -1    0    0    0  501  0.00000000000E+00  0.00000000000E+00  0.71603215069E+03  0.71603215071E+03  0.50400001928E-02 0.  1.
        1   -1    0    0  501    0  0.00000000000E+00  0.00000000000E+00 -0.10086264555E+04  0.10086264555E+04  0.50400001928E-02 0. -1.
    10030    2    1    2    0    0  0.00000000000E+00  0.00000000000E+00 -0.29259430478E+03  0.17246586062E+04  0.16996575775E+04 0.  0.
        2    1    3    3  502    0 -0.66465960496E+03 -0.14655771350E+03  0.37006675893E+03  0.77472637745E+03  0.25500000920E-02 0.  1.
       -2    1    3    3    0  502  0.66465960496E+03  0.14655771350E+03 -0.66266106371E+03  0.94993222875E+03  0.25500000920E-02 0. -1.
</event>
<event>
 5   0  0.6564887E-05  0.1658281E+04  0.7818609E-02  0.8785523E-01
       -1   -1    0    0    0  501  0.00000000000E+00  0.00000000000E+00  0.43783395029E+03  0.43783395032E+03  0.50400001928E-02 0. -1.
        1   -1    0    0  501    0  0.00000000000E+00  0.00000000000E+00 -0.15701696722E+04  0.15701696723E+04  0.50400001928E-02 0.  1.
    10030    2    1    2    0    0  0.00000000000E+00  0.00000000000E+00 -0.11323357220E+04  0.20080036226E+04  0.16582805435E+04 0.  0.
        4    1    3    3  502    0 -0.31469597063E+03  0.69346681680E+03 -0.16907147011E+03  0.78007471107E+03  0.12699999809E+01 0. -1.
       -4    1    3    3    0  502  0.31469597063E+03 -0.69346681680E+03 -0.96326425184E+03  0.12279289115E+04  0.12699999809E+01 0.  1.
</event>
<event>
 5   0  0.1255362E-04  0.1704087E+04  0.7818609E-02  0.8759037E-01
        2   -1    0    0  501    0  0.00000000000E+00  0.00000000000E+00  0.11991339215E+04  0.11991339216E+04  0.25500000920E-02 0. -1.
       -2   -1    0    0    0  501  0.00000000000E+00  0.00000000000E+00 -0.60541888900E+03  0.60541888900E+03  0.25500000920E-02 0.  1.
    10030    2    1    2    0    0  0.00000000000E+00  0.00000000000E+00  0.59371503255E+03  0.18045528106E+04  0.17040872355E+04 0.  0.
        1    1    3    3  502    0  0.57442076111E+03  0.31567664000E+02  0.96241986178E+03  0.11212527452E+04  0.50400001928E-02 0. -1.
       -1    1    3    3    0  502 -0.57442076111E+03 -0.31567664000E+02 -0.36870482923E+03  0.68330006537E+03  0.50400001928E-02 0.  1.
</event>
<event>
 5   0  0.1269175E-04  0.1694825E+04  0.7818609E-02  0.8764321E-01
        2   -1    0    0  501    0  0.00000000000E+00  0.00000000000E+00  0.93660822332E+03  0.93660822332E+03  0.25500000920E-02 0.  1.
       -2   -1    0    0    0  501  0.00000000000E+00  0.00000000000E+00 -0.76671093314E+03  0.76671093315E+03  0.25500000920E-02 0. -1.
    10030    2    1    2    0    0  0.00000000000E+00  0.00000000000E+00  0.16989729017E+03  0.17033191565E+04  0.16948247873E+04 0.  0.
        2    1    3    3  502    0  0.27665884156E+03  0.10552795916E+03 -0.71302799162E+03  0.77206552936E+03  0.25500000920E-02 0. -1.
       -2    1    3    3    0  502 -0.27665884156E+03 -0.10552795916E+03  0.88292528179E+03  0.93125362711E+03  0.25500000920E-02 0.  1.
</event>
<event>
 5   0  0.6601906E-05  0.1700875E+04  0.7818609E-02  0.8760865E-01
        1   -1    0    0  501    0  0.00000000000E+00  0.00000000000E+00  0.92960860023E+03  0.92960860024E+03  0.50400001928E-02 0. -1.
       -1   -1    0    0    0  501  0.00000000000E+00  0.00000000000E+00 -0.77800927974E+03  0.77800927976E+03  0.50400001928E-02 0.  1.
    10030    2    1    2    0    0  0.00000000000E+00  0.00000000000E+00  0.15159932049E+03  0.17076178800E+04  0.17008752071E+04 0.  0.
        1    1    3    3  502    0  0.60961980049E+02  0.61731752789E+03  0.65986772993E+03  0.90566147886E+03  0.50400001928E-02 0. -1.
       -1    1    3    3    0  502 -0.60961980049E+02 -0.61731752789E+03 -0.50826840945E+03  0.80195640114E+03  0.50400001928E-02 0.  1.
</event>
<event>
 5   0  0.6539134E-05  0.1685878E+04  0.7818609E-02  0.8769460E-01
        1   -1    0    0  501    0  0.00000000000E+00  0.00000000000E+00  0.74619388571E+03  0.74619388573E+03  0.50400001928E-02 0. -1.
       -1   -1    0    0    0  501  0.00000000000E+00  0.00000000000E+00 -0.95222738250E+03  0.95222738252E+03  0.50400001928E-02 0.  1.
    10030    2    1    2    0    0  0.00000000000E+00  0.00000000000E+00 -0.20603349679E+03  0.16984212682E+04  0.16858781103E+04 0.  0.
        2    1    3    3  502    0  0.40870806832E+03  0.20141751640E+02  0.63941828992E+03  0.75914670832E+03  0.25500000920E-02 0. -1.
       -2    1    3    3    0  502 -0.40870806832E+03 -0.20141751640E+02 -0.84545178671E+03  0.93927455992E+03  0.25500000920E-02 0.  1.
</event>
<event>
 5   0  0.1255362E-04  0.1702687E+04  0.7818609E-02  0.8759833E-01
        2   -1    0    0  501    0  0.00000000000E+00  0.00000000000E+00  0.96465106903E+03  0.96465106903E+03  0.25500000920E-02 0. -1.
       -2   -1    0    0    0  501  0.00000000000E+00  0.00000000000E+00 -0.75134511429E+03  0.75134511430E+03  0.25500000920E-02 0.  1.
    10030    2    1    2    0    0  0.00000000000E+00  0.00000000000E+00  0.21330595474E+03  0.17159961833E+04  0.17026871324E+04 0.  0.
        1    1    3    3  502    0 -0.40439026097E+02  0.33560127520E+03  0.89411975885E+03  0.95588371360E+03  0.50400001928E-02 0. -1.
       -1    1    3    3    0  502  0.40439026097E+02 -0.33560127520E+03 -0.68081380411E+03  0.76011246973E+03  0.50400001928E-02 0.  1.
</event>
<event>
 5   0  0.6539134E-05  0.1699718E+04  0.7818609E-02  0.8761525E-01
       -1   -1    0    0    0  501  0.00000000000E+00  0.00000000000E+00  0.10389445846E+04  0.10389445846E+04  0.50400001928E-02 0. -1.
        1   -1    0    0  501    0  0.00000000000E+00  0.00000000000E+00 -0.69518634697E+03  0.69518634699E+03  0.50400001928E-02 0.  1.
    10030    2    1    2    0    0  0.00000000000E+00  0.00000000000E+00  0.34375823763E+03  0.17341309316E+04  0.16997177301E+04 0.  0.
        2    1    3    3  502    0  0.53276339202E+03  0.35909296010E+03  0.73944753502E+03  0.97957503180E+03  0.25500000920E-02 0. -1.
       -2    1    3    3    0  502 -0.53276339202E+03 -0.35909296010E+03 -0.39568929739E+03  0.75455589981E+03  0.25500000920E-02 0.  1.
</event>
<event>
 5   0  0.6615842E-05  0.1711875E+04  0.7818609E-02  0.8754621E-01
        1   -1    0    0  501    0  0.00000000000E+00  0.00000000000E+00  0.28536443341E+04  0.28536443341E+04  0.50400001928E-02 0.  1.
       -1   -1    0    0    0  501  0.00000000000E+00  0.00000000000E+00 -0.25673446078E+03  0.25673446083E+03  0.50400001928E-02 0. -1.
    10030    2    1    2    0    0  0.00000000000E+00  0.00000000000E+00  0.25969098733E+04  0.31103787949E+04  0.17118748079E+04 0.  0.
        3    1    3    3  502    0  0.65720825993E+02 -0.11163685873E+03  0.28357291059E+04  0.28386865955E+04  0.10100000352E+00 0.  1.
       -3    1    3    3    0  502 -0.65720825993E+02  0.11163685873E+03 -0.23881923257E+03  0.27169219945E+03  0.10100000352E+00 0. -1.
</event>
<event>
 5   0  0.1285639E-04  0.1635830E+04  0.7818609E-02  0.8798834E-01
       -2   -1    0    0    0  501  0.00000000000E+00  0.00000000000E+00  0.15831413373E+04  0.15831413373E+04  0.25500000920E-02 0.  1.
        2   -1    0    0  501    0  0.00000000000E+00  0.00000000000E+00 -0.42256783061E+03  0.42256783062E+03  0.25500000920E-02 0. -1.
    10030    2    1    2    0    0  0.00000000000E+00  0.00000000000E+00  0.11605735067E+04  0.20057091680E+04  0.16358295761E+04 0.  0.
        4    1    3    3  502    0 -0.47995970461E+03  0.32240083344E+02 -0.23078588452E+03  0.53353957530E+03  0.12699999809E+01 0. -1.
       -4    1    3    3    0  502  0.47995970461E+03 -0.32240083344E+02  0.13913593912E+04  0.14721695927E+04  0.12699999809E+01 0.  1.
</event>
<event>
 5   0  0.1285639E-04  0.1682653E+04  0.7818609E-02  0.8771320E-01
        2   -1    0    0  501    0  0.00000000000E+00  0.00000000000E+00  0.12403177680E+04  0.12403177680E+04  0.25500000920E-02 0.  1.
       -2   -1    0    0    0  501  0.00000000000E+00  0.00000000000E+00 -0.57068480549E+03  0.57068480550E+03  0.25500000920E-02 0. -1.
    10030    2    1    2    0    0  0.00000000000E+00  0.00000000000E+00  0.66963296249E+03  0.18110025735E+04  0.16826532669E+04 0.  0.
        4    1    3    3  502    0  0.79046307927E+03  0.12927221965E+03  0.61191510810E+03  0.10079607626E+04  0.12699999809E+01 0. -1.
       -4    1    3    3    0  502 -0.79046307927E+03 -0.12927221965E+03  0.57717854392E+02  0.80304181092E+03  0.12699999809E+01 0.  1.
</event>
<event>
 5   0  0.1285639E-04  0.1681350E+04  0.7818609E-02  0.8772073E-01
       -2   -1    0    0    0  501  0.00000000000E+00  0.00000000000E+00  0.11838902463E+04  0.11838902463E+04  0.25500000920E-02 0. -1.
        2   -1    0    0  501    0  0.00000000000E+00  0.00000000000E+00 -0.59695930156E+03  0.59695930157E+03  0.25500000920E-02 0.  1.
    10030    2    1    2    0    0  0.00000000000E+00  0.00000000000E+00  0.58693094478E+03  0.17808495479E+04  0.16813498084E+04 0.  0.
        4    1    3    3  502    0 -0.79390994254E+03 -0.60735300495E+02  0.77798653445E+01  0.79626874407E+03  0.12699999809E+01 0.  1.
       -4    1    3    3    0  502  0.79390994254E+03  0.60735300495E+02  0.57915107944E+03  0.98458080384E+03  0.12699999809E+01 0. -1.
</event>
<event>
 5   0  0.1393870E-04  0.1696369E+04  0.7818609E-02  0.8763438E-01
       -2   -1    0    0    0  501  0.00000000000E+00  0.00000000000E+00  0.74226450582E+03  0.74226450583E+03  0.25500000920E-02 0.  1.
        2   -1    0    0  501    0  0.00000000000E+00  0.00000000000E+00 -0.96921926259E+03  0.96921926259E+03  0.25500000920E-02 0. -1.
    10030    2    1    2    0    0  0.00000000000E+00  0.00000000000E+00 -0.22695475677E+03  0.17114837684E+04  0.16963691308E+04 0.  0.
        3    1    3    3  502    0  0.58309649958E+03 -0.52686034370E+03 -0.43543460644E+03  0.89843567175E+03  0.10100000352E+00 0. -1.
       -3    1    3    3    0  502 -0.58309649958E+03  0.52686034370E+03  0.20847984967E+03  0.81304809667E+03  0.10100000352E+00 0.  1.
</event>
<event>
 5   0  0.6601906E-05  0.1702786E+04  0.7818609E-02  0.8759777E-01
        1   -1    0    0  501    0  0.00000000000E+00  0.00000000000E+00  0.11762364734E+04  0.11762364734E+04  0.50400001928E-02 0. -1.
       -1   -1    0    0    0  501  0.00000000000E+00  0.00000000000E+00 -0.61626250160E+03  0.61626250162E+03  0.50400001928E-02 0.  1.
    10030    2    1    2    0    0  0.00000000000E+00  0.00000000000E+00  0.55997397182E+03  0.17924989751E+04  0.17027864594E+04 0.  0.
        1    1    3    3  502    0  0.42807212583E+03 -0.66000978610E+03 -0.62761676512E+02  0.78917532319E+03  0.50400001928E-02 0.  1.
       -1    1    3    3    0  502 -0.42807212583E+03  0.66000978610E+03  0.62273564834E+03  0.10033236519E+04  0.50400001928E-02 0. -1.
</event>
<event>
 5   0  0.1269175E-04  0.1696763E+04  0.7818609E-02  0.8763213E-01
        2   -1    0    0  501    0  0.00000000000E+00  0.00000000000E+00  0.11688372758E+04  0.11688372758E+04  0.25500000920E-02 0. -1.
       -2   -1    0    0    0  501  0.00000000000E+00  0.00000000000E+00 -0.61578355945E+03  0.61578355946E+03  0.25500000920E-02 0.  1.
    10030    2    1    2    0    0  0.00000000000E+00  0.00000000000E+00  0.55305371630E+03  0.17846208352E+04  0.16967625386E+04 0.  0.
        2    1    3    3  502    0 -0.56427645866E+03  0.55768138609E+03 -0.39592652264E+02  0.79434503102E+03  0.25500000920E-02 0.  1.
       -2    1    3    3    0  502  0.56427645866E+03 -0.55768138609E+03  0.59264636857E+03  0.99027580420E+03  0.25500000920E-02 0. -1.
</event>
<event>
 5   0  0.1255362E-04  0.1697828E+04  0.7818609E-02  0.8762604E-01
        2   -1    0    0  501    0  0.00000000000E+00  0.00000000000E+00  0.22004866963E+04  0.22004866964E+04  0.25500000920E-02 0.  1.
       -2   -1    0    0    0  501  0.00000000000E+00  0.00000000000E+00 -0.32749785135E+03  0.32749785136E+03  0.25500000920E-02 0. -1.
    10030    2    1    2    0    0  0.00000000000E+00  0.00000000000E+00  0.18729888450E+04  0.25279845477E+04  0.16978276296E+04 0.  0.
        1    1    3    3  502    0  0.11550718411E+03  0.40524289790E+03  0.20337735061E+04  0.20769685578E+04  0.50400001928E-02 0.  1.
       -1    1    3    3    0  502 -0.11550718411E+03 -0.40524289790E+03 -0.16078466111E+03  0.45101598991E+03  0.50400001928E-02 0. -1.
</event>
<event>
 5   0  0.6539134E-05  0.1694116E+04  0.7818609E-02  0.8764727E-01
       -1   -1    0    0    0  501  0.00000000000E+00  0.00000000000E+00  0.16991241275E+04  0.16991241275E+04  0.50400001928E-02 0.  1.
        1   -1    0    0  501    0  0.00000000000E+00  0.00000000000E+00 -0.42228056450E+03  0.42228056453E+03  0.50400001928E-02 0. -1.
    10030    2    1    2    0    0  0.00000000000E+00  0.00000000000E+00  0.12768435630E+04  0.21214046921E+04  0.16941158116E+04 0.  0.
        2    1    3    3  502    0  0.72079713543E+03 -0.24134783637E+03  0.17037002882E+03  0.77898859767E+03  0.25500000920E-02 0. -1.
       -2    1    3    3    0  502 -0.72079713543E+03  0.24134783637E+03  0.11064735342E+04  0.13424160944E+04  0.25500000920E-02 0.  1.
</event>
<event>
 5   0  0.6539134E-05  0.1700693E+04  0.7818609E-02  0.8760969E-01
        1   -1    0    0  501    0  0.00000000000E+00  0.00000000000E+00  0.21900871271E+04  0.21900871271E+04  0.50400001928E-02 0.  1.
       -1   -1    0    0    0  501  0.00000000000E+00  0.00000000000E+00 -0.33016469309E+03  0.33016469313E+03  0.50400001928E-02 0. -1.
    10030    2    1    2    0    0  0.00000000000E+00  0.00000000000E+00  0.18599224340E+04  0.25202518203E+04  0.17006933224E+04 0.  0.
        2    1    3    3  502    0  0.17011524762E+03 -0.72796481307E+03  0.15304814151E+04  0.17033042384E+04  0.25500000920E-02 0.  1.
       -2    1    3    3    0  502 -0.17011524762E+03  0.72796481307E+03  0.32944101892E+03  0.81694758185E+03  0.25500000920E-02 0. -1.
</event>
<event>
 5   0  0.1255362E-04  0.1703304E+04  0.7818609E-02  0.8759482E-01
        2   -1    0    0  501    0  0.00000000000E+00  0.00000000000E+00  0.20176181516E+04  0.20176181516E+04  0.25500000920E-02 0.  1.
       -2   -1    0    0    0  501  0.00000000000E+00  0.00000000000E+00 -0.35948895311E+03  0.35948895312E+03  0.25500000920E-02 0. -1.
    10030    2    1    2    0    0  0.00000000000E+00  0.00000000000E+00  0.16581291984E+04  0.23771071047E+04  0.17033043616E+04 0.  0.
        1    1    3    3  502    0  0.52463613564E+03  0.65682492496E+03  0.10196495889E+04  0.13214943591E+04  0.50400001928E-02 0.  1.
       -1    1    3    3    0  502 -0.52463613564E+03 -0.65682492496E+03  0.63847960950E+03  0.10556127456E+04  0.50400001928E-02 0. -1.
</event>
<event>
 5   0  0.1285639E-04  0.1710851E+04  0.7818609E-02  0.8755200E-01
        2   -1    0    0  501    0  0.00000000000E+00  0.00000000000E+00  0.82628852417E+03  0.82628852417E+03  0.25500000920E-02 0. -1.
       -2   -1    0    0    0  501  0.00000000000E+00  0.00000000000E+00 -0.88559007462E+03  0.88559007463E+03  0.25500000920E-02 0.  1.
    10030    2    1    2    0    0  0.00000000000E+00  0.00000000000E+00 -0.59301550457E+02  0.17118785988E+04  0.17108511517E+04 0.  0.
        4    1    3    3  502    0 -0.69510691610E+02  0.81381589830E+03  0.22471292553E+03  0.84712783237E+03  0.12699999809E+01 0. -1.
       -4    1    3    3    0  502  0.69510691610E+02 -0.81381589830E+03 -0.28401447599E+03  0.86475076643E+03  0.12699999809E+01 0.  1.
</event>
<event>
 5   0  0.1285639E-04  0.1702000E+04  0.7818609E-02  0.8760224E-01
        2   -1    0    0  501    0  0.00000000000E+00  0.00000000000E+00  0.61638588744E+03  0.61638588745E+03  0.25500000920E-02 0.  1.
       -2   -1    0    0    0  501  0.00000000000E+00  0.00000000000E+00 -0.11749151899E+04  0.11749151899E+04  0.25500000920E-02 0. -1.
    10030    2    1    2    0    0  0.00000000000E+00  0.00000000000E+00 -0.55852930249E+03  0.17913010774E+04  0.17020001669E+04 0.  0.
        4    1    3    3  502    0 -0.34901271206E+03  0.66222936524E+03 -0.70527633294E+03  0.10284813679E+04  0.12699999809E+01 0. -1.
       -4    1    3    3    0  502  0.34901271206E+03 -0.66222936524E+03  0.14674703045E+03  0.76281970951E+03  0.12699999809E+01 0.  1.
</event>
<event>
 5   0  0.6615842E-05  0.1690688E+04  0.7818609E-02  0.8766693E-01
       -1   -1    0    0    0  501  0.00000000000E+00  0.00000000000E+00  0.36700724549E+03  0.36700724553E+03  0.50400001928E-02 0. -1.
        1   -1    0    0  501    0  0.00000000000E+00  0.00000000000E+00 -0.19471179186E+04  0.19471179186E+04  0.50400001928E-02 0.  1.
    10030    2    1    2    0    0  0.00000000000E+00  0.00000000000E+00 -0.15801106731E+04  0.23141251641E+04  0.16906878884E+04 0.  0.
        3    1    3    3  502    0  0.14672068266E+03  0.53359207172E+03 -0.16647257263E+04  0.17542973556E+04  0.10100000352E+00 0.  1.
       -3    1    3    3    0  502 -0.14672068266E+03 -0.53359207172E+03  0.84615053269E+02  0.55982780850E+03  0.10100000352E+00 0. -1.
</event>
<event>
 5   0  0.6834837E-05  0.1693321E+04  0.7818609E-02  0.8765183E-01
        1   -1    0    0  501    0  0.00000000000E+00  0.00000000000E+00  0.17168727147E+04  0.17168727147E+04  0.50400001928E-02 0. -1.
       -1   -1    0    0    0  501  0.00000000000E+00  0.00000000000E+00 -0.41752313825E+03  0.41752313828E+03  0.50400001928E-02 0.  1.
    10030    2    1    2    0    0  0.00000000000E+00  0.00000000000E+00  0.12993495764E+04  0.21343958529E+04  0.16933210964E+04 0.  0.
        5    1    3    3  502    0  0.33026641075E+03  0.46625860314E+02 -0.33120322560E+03  0.47007184511E+03  0.46999998093E+01 0.  1.
       -5    1    3    3    0  502 -0.33026641075E+03 -0.46625860314E+02  0.16305528020E+04  0.16643240078E+04  0.46999998093E+01 0. -1.
</event>
<event>
 5   0  0.1269175E-04  0.1704901E+04  0.7818609E-02  0.8758574E-01
        2   -1    0    0  501    0  0.00000000000E+00  0.00000000000E+00  0.12446182007E+04  0.12446182007E+04  0.25500000920E-02 0. -1.
       -2   -1    0    0    0  501  0.00000000000E+00  0.00000000000E+00 -0.58385125773E+03  0.58385125773E+03  0.25500000920E-02 0.  1.
    10030    2    1    2    0    0  0.00000000000E+00  0.00000000000E+00  0.66076694293E+03  0.18284694584E+04  0.17049010550E+04 0.  0.
        2    1    3    3  502    0  0.55826772233E+03 -0.58345464690E+02 -0.35768043597E+03  0.66558420754E+03  0.25500000920E-02 0.  1.
       -2    1    3    3    0  502 -0.55826772233E+03  0.58345464690E+02  0.10184473789E+04  0.11628852509E+04  0.25500000920E-02 0. -1.
</event>
<event>
 5   0  0.6539134E-05  0.1753782E+04  0.7818609E-02  0.8731271E-01
       -1   -1    0    0    0  501  0.00000000000E+00  0.00000000000E+00  0.63361562542E+03  0.63361562544E+03  0.50400001928E-02 0. -1.
        1   -1    0    0  501    0  0.00000000000E+00  0.00000000000E+00 -0.12135716188E+04  0.12135716189E+04  0.50400001928E-02 0.  1.
    10030    2    1    2    0    0  0.00000000000E+00  0.00000000000E+00 -0.57995599342E+03  0.18471872443E+04  0.17537821305E+04 0.  0.
        2    1    3    3  502    0 -0.29377848772E+03  0.30070945604E+03  0.52055680810E+03  0.66911237268E+03  0.25500000920E-02 0. -1.
       -2    1    3    3    0  502  0.29377848772E+03 -0.30070945604E+03 -0.11005128015E+04  0.11780748716E+04  0.25500000920E-02 0.  1.
</event>
<event>
 5   0  0.6539134E-05  0.1698096E+04  0.7818609E-02  0.8762451E-01
       -1   -1    0    0    0  501  0.00000000000E+00  0.00000000000E+00  0.14162090095E+04  0.14162090095E+04  0.50400001928E-02 0. -1.
        1   -1    0    0  501    0  0.00000000000E+00  0.00000000000E+00 -0.50902290274E+03  0.50902290277E+03  0.50400001928E-02 0.  1.
    10030    2    1    2    0    0  0.00000000000E+00  0.00000000000E+00  0.90718610679E+03  0.19252319123E+04  0.16980963706E+04 0.  0.
        2    1    3    3  502    0 -0.43048544285E+03  0.40149382358E+03  0.11472902987E+04  0.12894921622E+04  0.25500000920E-02 0. -1.
       -2    1    3    3    0  502  0.43048544285E+03 -0.40149382358E+03 -0.24010419191E+03  0.63573975011E+03  0.25500000920E-02 0.  1.
</event>
<event>
 5   0  0.6601906E-05  0.1699068E+04  0.7818609E-02  0.8761896E-01
       -1   -1    0    0    0  501  0.00000000000E+00  0.00000000000E+00  0.10622097802E+04  0.10622097802E+04  0.50400001928E-02 0. -1.
        1   -1    0    0  501    0  0.00000000000E+00  0.00000000000E+00 -0.67944039895E+03  0.67944039897E+03  0.50400001928E-02 0.  1.
    10030    2    1    2    0    0  0.00000000000E+00  0.00000000000E+00  0.38276938124E+03  0.17416501792E+04  0.16990682586E+04 0.  0.
        1    1    3    3  502    0 -0.58153510478E+03  0.20997468105E+03 -0.40582785123E+03  0.73957331593E+03  0.50400001928E-02 0.  1.
       -1    1    3    3    0  502  0.58153510478E+03 -0.20997468105E+03  0.78859723248E+03  0.10020768633E+04  0.50400001928E-02 0. -1.
</event>
<event>
 5   0  0.1269175E-04  0.1703745E+04  0.7818609E-02  0.8759231E-01
        2   -1    0    0  501    0  0.00000000000E+00  0.00000000000E+00  0.94079545690E+03  0.94079545690E+03  0.25500000920E-02 0. -1.
       -2   -1    0    0    0  501  0.00000000000E+00  0.00000000000E+00 -0.77135476167E+03  0.77135476167E+03  0.25500000920E-02 0.  1.
    10030    2    1    2    0    0  0.00000000000E+00  0.00000000000E+00  0.16944069523E+03  0.17121502186E+04  0.17037453512E+04 0.  0.
        2    1    3    3  502    0  0.21898959779E+03  0.76583573512E+03  0.38824716306E+03  0.88611324150E+03  0.25500000920E-02 0. -1.
       -2    1    3    3    0  502 -0.21898959779E+03 -0.76583573512E+03 -0.21880646783E+03  0.82603697707E+03  0.25500000920E-02 0.  1.
</event>
<event>
 5   0  0.1285639E-04  0.1690143E+04  0.7818609E-02  0.8767006E-01
        2   -1    0    0  501    0  0.00000000000E+00  0.00000000000E+00  0.64480007000E+03  0.64480007001E+03  0.25500000920E-02 0.  1.
       -2   -1    0    0    0  501  0.00000000000E+00  0.00000000000E+00 -0.11075463354E+04  0.11075463354E+04  0.25500000920E-02 0. -1.
    10030    2    1    2    0    0  0.00000000000E+00  0.00000000000E+00 -0.46274626540E+03  0.17523464054E+04  0.16901431355E+04 0.  0.
        4    1    3    3  502    0 -0.76721583277E+03 -0.34006363613E+03 -0.12831188162E+03  0.84895757405E+03  0.12699999809E+01 0. -1.
       -4    1    3    3    0  502  0.76721583277E+03  0.34006363613E+03 -0.33443438377E+03  0.90338883136E+03  0.12699999809E+01 0.  1.
</event>
<event>
 5   0  0.6601906E-05  0.1696558E+04  0.7818609E-02  0.8763330E-01
        1   -1    0    0  501    0  0.00000000000E+00  0.00000000000E+00  0.33048546047E+03  0.33048546051E+03  0.50400001928E-02 0. -1.
       -1   -1    0    0    0  501  0.00000000000E+00  0.00000000000E+00 -0.21773328855E+04  0.21773328855E+04  0.50400001928E-02 0.  1.
    10030    2    1    2    0    0  0.00000000000E+00  0.00000000000E+00 -0.18468474251E+04  0.25078183461E+04  0.16965575278E+04 0.  0.
        1    1    3    3  502    0  0.37990840591E+02  0.69163156232E+03 -0.19959907050E+03  0.72085873161E+03  0.50400001928E-02 0. -1.
       -1    1    3    3    0  502 -0.37990840591E+02 -0.69163156232E+03 -0.16472483546E+04  0.17869596144E+04  0.50400001928E-02 0.  1.
</event>
<event>
 5   0  0.1255362E-04  0.1698743E+04  0.7818609E-02  0.8762082E-01
       -2   -1    0    0    0  501  0.00000000000E+00  0.00000000000E+00  0.73497853039E+03  0.73497853040E+03  0.25500000920E-02 0. -1.
        2   -1    0    0  501    0  0.00000000000E+00  0.00000000000E+00 -0.98156877389E+03  0.98156877389E+03  0.25500000920E-02 0.  1.
    10030    2    1    2    0    0  0.00000000000E+00  0.00000000000E+00 -0.24659024349E+03  0.17165473043E+04  0.16987430352E+04 0.  0.
        1    1    3    3  502    0 -0.45831186100E+03  0.68560615688E+03  0.82124502367E+02  0.82876413906E+03  0.50400001928E-02 0. -1.
       -1    1    3    3    0  502  0.45831186100E+03 -0.68560615688E+03 -0.32871474586E+03  0.88778316523E+03  0.50400001928E-02 0.  1.
</event>
<event>
 5   0  0.6539134E-05  0.1697936E+04  0.7818609E-02  0.8762542E-01
       -1   -1    0    0    0  501  0.00000000000E+00  0.00000000000E+00  0.54548548066E+03  0.54548548068E+03  0.50400001928E-02 0. -1.
        1   -1    0    0  501    0  0.00000000000E+00  0.00000000000E+00 -0.13212938934E+04  0.13212938934E+04  0.50400001928E-02 0.  1.
    10030    2    1    2    0    0  0.00000000000E+00  0.00000000000E+00 -0.77580841274E+03  0.18667793741E+04  0.16979359641E+04 0.  0.
        2    1    3    3  502    0  0.43138765409E+03 -0.37968098003E+03 -0.10749389358E+04  0.12189120848E+04  0.25500000920E-02 0.  1.
       -2    1    3    3    0  502 -0.43138765409E+03  0.37968098003E+03  0.29913052308E+03  0.64786728930E+03  0.25500000920E-02 0. -1.
</event>
<event>
 5   0  0.6601906E-05  0.1708544E+04  0.7818609E-02  0.8756507E-01
        1   -1    0    0  501    0  0.00000000000E+00  0.00000000000E+00  0.64383615221E+03  0.64383615223E+03  0.50400001928E-02 0. -1.
       -1   -1    0    0    0  501  0.00000000000E+00  0.00000000000E+00 -0.11334878146E+04  0.11334878146E+04  0.50400001928E-02 0.  1.
    10030    2    1    2    0    0  0.00000000000E+00  0.00000000000E+00 -0.48965166240E+03  0.17773239669E+04  0.17085437462E+04 0.  0.
        1    1    3    3  502    0  0.45586015692E+03 -0.47296610474E+03  0.32330575040E+03  0.73214208127E+03  0.50400001928E-02 0. -1.
       -1    1    3    3    0  502 -0.45586015692E+03  0.47296610474E+03 -0.81295741280E+03  0.10451818856E+04  0.50400001928E-02 0.  1.
</event>
<event>
 5   0  0.6615842E-05  0.1700896E+04  0.7818609E-02  0.8760854E-01
        1   -1    0    0  501    0  0.00000000000E+00  0.00000000000E+00  0.86158685389E+03  0.86158685391E+03  0.50400001928E-02 0. -1.
       -1   -1    0    0    0  501  0.00000000000E+00  0.00000000000E+00 -0.83945271273E+03  0.83945271274E+03  0.50400001928E-02 0.  1.
    10030    2    1    2    0    0  0.00000000000E+00  0.00000000000E+00  0.22134141164E+02  0.17010395667E+04  0.17008955544E+04 0.  0.
        3    1    3    3  502    0 -0.59515926379E+03  0.69709402141E+01  0.61857077919E+03  0.85842469813E+03  0.10100000352E+00 0. -1.
       -3    1    3    3    0  502  0.59515926379E+03 -0.69709402141E+01 -0.59643663802E+03  0.84261486853E+03  0.10100000352E+00 0.  1.
</event>
<event>
 5   0  0.6601906E-05  0.1694826E+04  0.7818609E-02  0.8764321E-01
        1   -1    0    0  501    0  0.00000000000E+00  0.00000000000E+00  0.65320898648E+03  0.65320898650E+03  0.50400001928E-02 0. -1.
       -1   -1    0    0    0  501  0.00000000000E+00  0.00000000000E+00 -0.10993551501E+04  0.10993551501E+04  0.50400001928E-02 0.  1.
    10030    2    1    2    0    0  0.00000000000E+00  0.00000000000E+00 -0.44614616363E+03  0.17525641366E+04  0.16948258476E+04 0.  0.
        1    1    3    3  502    0 -0.62665216824E+03 -0.31535995564E+02 -0.81205702831E+03  0.10262183375E+04  0.50400001928E-02 0.  1.
       -1    1    3    3    0  502  0.62665216824E+03  0.31535995564E+02  0.36591086468E+03  0.72634579912E+03  0.50400001928E-02 0. -1.
</event>
<event>
 5   0  0.6601906E-05  0.1701422E+04  0.7818609E-02  0.8760554E-01
        1   -1    0    0  501    0  0.00000000000E+00  0.00000000000E+00  0.60785808515E+03  0.60785808517E+03  0.50400001928E-02 0. -1.
       -1   -1    0    0    0  501  0.00000000000E+00  0.00000000000E+00 -0.11905893068E+04  0.11905893068E+04  0.50400001928E-02 0.  1.
    10030    2    1    2    0    0  0.00000000000E+00  0.00000000000E+00 -0.58273122165E+03  0.17984473920E+04  0.17014221537E+04 0.  0.
        1    1    3    3  502    0 -0.75076208834E+03  0.25470547587E+02  0.13067359750E+03  0.76247495119E+03  0.50400001928E-02 0. -1.
       -1    1    3    3    0  502  0.75076208834E+03 -0.25470547587E+02 -0.71340481915E+03  0.10359724408E+04  0.50400001928E-02 0.  1.
</event>
<event>
 5   0  0.6539134E-05  0.1699106E+04  0.7818609E-02  0.8761874E-01
       -1   -1    0    0    0  501  0.00000000000E+00  0.00000000000E+00  0.54456591048E+03  0.54456591050E+03  0.50400001928E-02 0.  1.
        1   -1    0    0  501    0  0.00000000000E+00  0.00000000000E+00 -0.13253497573E+04  0.13253497573E+04  0.50400001928E-02 0. -1.
    10030    2    1    2    0    0  0.00000000000E+00  0.00000000000E+00 -0.78078384679E+03  0.18699156678E+04  0.16991059970E+04 0.  0.
        2    1    3    3  502    0 -0.66022726242E+01  0.73694874813E+02  0.54101325261E+03  0.54604932385E+03  0.25500000920E-02 0.  1.
       -2    1    3    3    0  502  0.66022726242E+01 -0.73694874813E+02 -0.13217970994E+04  0.13238663439E+04  0.25500000920E-02 0. -1.
</event>
<event>
 5   0  0.6601906E-05  0.1699576E+04  0.7818609E-02  0.8761606E-01
        1   -1    0    0  501    0  0.00000000000E+00  0.00000000000E+00  0.71124282035E+03  0.71124282036E+03  0.50400001928E-02 0.  1.
       -1   -1    0    0    0  501  0.00000000000E+00  0.00000000000E+00 -0.10153206441E+04  0.10153206441E+04  0.50400001928E-02 0. -1.
    10030    2    1    2    0    0  0.00000000000E+00  0.00000000000E+00 -0.30407782378E+03  0.17265634645E+04  0.16995758512E+04 0.  0.
        1    1    3    3  502    0  0.33872756734E+03 -0.63751843957E+03 -0.60745805005E+03  0.94348895503E+03  0.50400001928E-02 0. -1.
       -1    1    3    3    0  502 -0.33872756734E+03  0.63751843957E+03  0.30338022627E+03  0.78307450947E+03  0.50400001928E-02 0.  1.
</event>
<event>
 5   0  0.1269175E-04  0.1699835E+04  0.7818609E-02  0.8761458E-01
        2   -1    0    0  501    0  0.00000000000E+00  0.00000000000E+00  0.12241201992E+04  0.12241201992E+04  0.25500000920E-02 0. -1.
       -2   -1    0    0    0  501  0.00000000000E+00  0.00000000000E+00 -0.59010547436E+03  0.59010547436E+03  0.25500000920E-02 0.  1.
    10030    2    1    2    0    0  0.00000000000E+00  0.00000000000E+00  0.63401472483E+03  0.18142256736E+04  0.16998353224E+04 0.  0.
        2    1    3    3  502    0  0.38630188648E+03 -0.74915641695E+03  0.43341370759E+03  0.94779318762E+03  0.25500000920E-02 0.  1.
       -2    1    3    3    0  502 -0.38630188648E+03  0.74915641695E+03  0.20060101724E+03  0.86643248594E+03  0.25500000920E-02 0. -1.
</event>
<event>
 5   0  0.6539134E-05  0.1702489E+04  0.7818609E-02  0.8759946E-01
        1   -1    0    0  501    0  0.00000000000E+00  0.00000000000E+00  0.24535757006E+04  0.24535757006E+04  0.50400001928E-02 0. -1.
       -1   -1    0    0    0  501  0.00000000000E+00  0.00000000000E+00 -0.29533126031E+03  0.29533126035E+03  0.50400001928E-02 0.  1.
    10030    2    1    2    0    0  0.00000000000E+00  0.00000000000E+00  0.21582444403E+04  0.27489069610E+04  0.17024894760E+04 0.  0.
        2    1    3    3  502    0 -0.13974070247E+03 -0.39053258714E+03 -0.12112580632E+03  0.43210487906E+03  0.25500000920E-02 0.  1.
       -2    1    3    3    0  502  0.13974070247E+03  0.39053258714E+03  0.22793702467E+04  0.23168020819E+04  0.25500000920E-02 0. -1.
</event>
<event>
 5   0  0.6834837E-05  0.1701271E+04  0.7818609E-02  0.8760640E-01
        1   -1    0    0  501    0  0.00000000000E+00  0.00000000000E+00  0.12201710269E+04  0.12201710269E+04  0.50400001928E-02 0. -1.
       -1   -1    0    0    0  501  0.00000000000E+00  0.00000000000E+00 -0.59301566775E+03  0.59301566777E+03  0.50400001928E-02 0.  1.
    10030    2    1    2    0    0  0.00000000000E+00  0.00000000000E+00  0.62715535918E+03  0.18131866947E+04  0.17012707443E+04 0.  0.
        5    1    3    3  502    0  0.79596583852E+03 -0.21473839786E+03  0.90311246784E+02  0.82936867972E+03  0.46999998093E+01 0.  1.
       -5    1    3    3    0  502 -0.79596583852E+03  0.21473839786E+03  0.53684411240E+03  0.98381801499E+03  0.46999998093E+01 0. -1.
</event>
<event>
 5   0  0.1255362E-04  0.1702220E+04  0.7818609E-02  0.8760100E-01
       -2   -1    0    0    0  501  0.00000000000E+00  0.00000000000E+00  0.52551909798E+03  0.52551909798E+03  0.25500000920E-02 0.  1.
        2   -1    0    0  501    0  0.00000000000E+00  0.00000000000E+00 -0.13784233762E+04  0.13784233762E+04  0.25500000920E-02 0. -1.
    10030    2    1    2    0    0  0.00000000000E+00  0.00000000000E+00 -0.85290427827E+03  0.19039424742E+04  0.17022195033E+04 0.  0.
        1    1    3    3  502    0 -0.25056910299E+03  0.20135133658E+03 -0.13079174793E+04  0.13468390285E+04  0.50400001928E-02 0. -1.
       -1    1    3    3    0  502  0.25056910299E+03 -0.20135133658E+03  0.45501320100E+03  0.55710344572E+03  0.50400001928E-02 0.  1.
</event>
<event>
 5   0  0.1255362E-04  0.1696657E+04  0.7818609E-02  0.8763273E-01
        2   -1    0    0  501    0  0.00000000000E+00  0.00000000000E+00  0.22408188346E+04  0.22408188346E+04  0.25500000920E-02 0. -1.
       -2   -1    0    0    0  501  0.00000000000E+00  0.00000000000E+00 -0.32116008520E+03  0.32116008521E+03  0.25500000920E-02 0.  1.
    10030    2    1    2    0    0  0.00000000000E+00  0.00000000000E+00  0.19196587494E+04  0.25619789198E+04  0.16966573819E+04 0.  0.
        1    1    3    3  502    0  0.83236302160E+03  0.16196739790E+03  0.99681489529E+03  0.13087022477E+04  0.50400001928E-02 0. -1.
       -1    1    3    3    0  502 -0.83236302160E+03 -0.16196739790E+03  0.92284385411E+03  0.12532766721E+04  0.50400001928E-02 0.  1.
</event>
<event>
 5   0  0.1269175E-04  0.1702697E+04  0.7818609E-02  0.8759827E-01
       -2   -1    0    0    0  501  0.00000000000E+00  0.00000000000E+00  0.61141550679E+03  0.61141550680E+03  0.25500000920E-02 0.  1.
        2   -1    0    0  501    0  0.00000000000E+00  0.00000000000E+00 -0.11854369915E+04  0.11854369915E+04  0.25500000920E-02 0. -1.
    10030    2    1    2    0    0  0.00000000000E+00  0.00000000000E+00 -0.57402148470E+03  0.17968524983E+04  0.17026973412E+04 0.  0.
        2    1    3    3  502    0 -0.61447913324E+03 -0.19233824545E+03  0.30075874087E+03  0.71065774186E+03  0.25500000920E-02 0.  1.
       -2    1    3    3    0  502  0.61447913324E+03  0.19233824545E+03 -0.87478022557E+03  0.10861947564E+04  0.25500000920E-02 0. -1.
</event>
<event>
 5   0  0.1333546E-04  0.1703508E+04  0.7818609E-02  0.8759366E-01
       -2   -1    0    0    0  501  0.00000000000E+00  0.00000000000E+00  0.73032731929E+03  0.73032731929E+03  0.25500000920E-02 0. -1.
        2   -1    0    0  501    0  0.00000000000E+00  0.00000000000E+00 -0.99336936475E+03  0.99336936475E+03  0.25500000920E-02 0.  1.
    10030    2    1    2    0    0  0.00000000000E+00  0.00000000000E+00 -0.26304204546E+03  0.17236966840E+04  0.17035078928E+04 0.  0.
        5    1    3    3  502    0  0.40798820036E+03  0.72211110995E+03 -0.32763197645E+03  0.89177554841E+03  0.46999998093E+01 0.  1.
       -5    1    3    3    0  502 -0.40798820036E+03 -0.72211110995E+03  0.64589930993E+02  0.83192113564E+03  0.46999998093E+01 0. -1.
</event>
<event>
 5   0  0.6564887E-05  0.1657194E+04  0.7818609E-02  0.8786162E-01
       -1   -1    0    0    0  501  0.00000000000E+00  0.00000000000E+00  0.59274060300E+03  0.59274060302E+03  0.50400001928E-02 0.  1.
        1   -1    0    0  501    0  0.00000000000E+00  0.00000000000E+00 -0.11583023047E+04  0.11583023047E+04  0.50400001928E-02 0. -1.
    10030    2    1    2    0    0  0.00000000000E+00  0.00000000000E+00 -0.56556170171E+03  0.17510429077E+04  0.16571937806E+04 0.  0.
        4    1    3    3  502    0  0.55902252199E+03 -0.45271201614E+03  0.15174630827E+03  0.73517542439E+03  0.12699999809E+01 0.  1.
       -4    1    3    3    0  502 -0.55902252199E+03  0.45271201614E+03 -0.71730800998E+03  0.10158674834E+04  0.12699999809E+01 0. -1.
</event>
<event>
 5   0  0.1255362E-04  0.1700931E+04  0.7818609E-02  0.8760833E-01
       -2   -1    0    0    0  501  0.00000000000E+00  0.00000000000E+00  0.33182561606E+03  0.33182561606E+03  0.25500000920E-02 0.  1.
        2   -1    0    0  501    0  0.00000000000E+00  0.00000000000E+00 -0.21797351560E+04  0.21797351560E+04  0.25500000920E-02 0. -1.
    10030    2    1    2    0    0  0.00000000000E+00  0.00000000000E+00 -0.18479095399E+04  0.25115607720E+04  0.17009314636E+04 0.  0.
        1    1    3    3  502    0  0.12776060224E+03  0.69579193666E+03 -0.22691725787E+03  0.74292707082E+03  0.50400001928E-02 0.  1.
       -1    1    3    3    0  502 -0.12776060224E+03 -0.69579193666E+03 -0.16209922821E+04  0.17686337012E+04  0.50400001928E-02 0. -1.
</event>
<event>
 5   0  0.6601906E-05  0.1684048E+04  0.7818609E-02  0.8770515E-01
       -1   -1    0    0    0  501  0.00000000000E+00  0.00000000000E+00  0.67903344101E+03  0.67903344103E+03  0.50400001928E-02 0. -1.
        1   -1    0    0  501    0  0.00000000000E+00  0.00000000000E+00 -0.10441372978E+04  0.10441372978E+04  0.50400001928E-02 0.  1.
    10030    2    1    2    0    0  0.00000000000E+00  0.00000000000E+00 -0.36510385675E+03  0.17231707388E+04  0.16840476742E+04 0.  0.
        1    1    3    3  502    0 -0.17666170275E+03  0.16819759716E+03 -0.10071930024E+04  0.10363095739E+04  0.50400001928E-02 0.  1.
       -1    1    3    3    0  502  0.17666170275E+03 -0.16819759716E+03  0.64208914562E+03  0.68686116490E+03  0.50400001928E-02 0. -1.
</event>
<event>
 5   0  0.6539134E-05  0.1705716E+04  0.7818609E-02  0.8758111E-01
       -1   -1    0    0    0  501  0.00000000000E+00  0.00000000000E+00  0.47823731882E+03  0.47823731885E+03  0.50400001928E-02 0.  1.
        1   -1    0    0  501    0  0.00000000000E+00  0.00000000000E+00 -0.15209330861E+04  0.15209330861E+04  0.50400001928E-02 0. -1.
    10030    2    1    2    0    0  0.00000000000E+00  0.00000000000E+00 -0.10426957673E+04  0.19991704049E+04  0.17057162264E+04 0.  0.
        2    1    3    3  502    0  0.16848264638E+03 -0.79849983687E+03 -0.81171766312E+03  0.11510316921E+04  0.25500000920E-02 0. -1.
       -2    1    3    3    0  502 -0.16848264638E+03  0.79849983687E+03 -0.23097810415E+03  0.84813871284E+03  0.25500000920E-02 0.  1.
</event>
<event>
 5   0  0.6601906E-05  0.1699683E+04  0.7818609E-02  0.8761545E-01
       -1   -1    0    0    0  501  0.00000000000E+00  0.00000000000E+00  0.10753498539E+04  0.10753498539E+04  0.50400001928E-02 0. -1.
        1   -1    0    0  501    0  0.00000000000E+00  0.00000000000E+00 -0.67162359191E+03  0.67162359192E+03  0.50400001928E-02 0.  1.
    10030    2    1    2    0    0  0.00000000000E+00  0.00000000000E+00  0.40372626203E+03  0.17469734459E+04  0.16996827133E+04 0.  0.
        1    1    3    3  502    0  0.65685560502E+03  0.27017351623E+03  0.68151348306E+03  0.98433411112E+03  0.50400001928E-02 0. -1.
       -1    1    3    3    0  502 -0.65685560502E+03 -0.27017351623E+03 -0.27778722103E+03  0.76263933475E+03  0.50400001928E-02 0.  1.
</event>
<event>
 5   0  0.6834837E-05  0.1714124E+04  0.7818609E-02  0.8753350E-01
       -1   -1    0    0    0  501  0.00000000000E+00  0.00000000000E+00  0.12649810124E+04  0.12649810124E+04  0.50400001928E-02 0. -1.
        1   -1    0    0  501    0  0.00000000000E+00  0.00000000000E+00 -0.58068483259E+03  0.58068483261E+03  0.50400001928E-02 0.  1.
    10030    2    1    2    0    0  0.00000000000E+00  0.00000000000E+00  0.68429617982E+03  0.18456658450E+04  0.17141240182E+04 0.  0.
        5    1    3    3  502    0 -0.46566795605E+03  0.54193867243E+03  0.85174197410E+03  0.11117691534E+04  0.46999998093E+01 0. -1.
       -5    1    3    3    0  502  0.46566795605E+03 -0.54193867243E+03 -0.16744579428E+03  0.73389669164E+03  0.46999998093E+01 0.  1.
</event>
<event>
 5   0  0.6539134E-05  0.1692726E+04  0.7818609E-02  0.8765524E-01
        1   -1    0    0  501    0  0.00000000000E+00  0.00000000000E+00  0.12232152861E+04  0.12232152861E+04  0.50400001928E-02 0. -1.
       -1   -1    0    0    0  501  0.00000000000E+00  0.00000000000E+00 -0.58561273095E+03  0.58561273097E+03  0.50400001928E-02 0.  1.
    10030    2    1    2    0    0  0.00000000000E+00  0.00000000000E+00  0.63760255519E+03  0.18088280171E+04  0.16927261377E+04 0.  0.
        2    1    3    3  502    0  0.55779593241E+03  0.62586026457E+03  0.44292819878E+03  0.94816810866E+03  0.25500000920E-02 0. -1.
       -2    1    3    3    0  502 -0.55779593241E+03 -0.62586026457E+03  0.19467435640E+03  0.86065990846E+03  0.25500000920E-02 0.  1.
</event>
<event>
 5   0  0.1255362E-04  0.1698422E+04  0.7818609E-02  0.8762265E-01
        2   -1    0    0  501    0  0.00000000000E+00  0.00000000000E+00  0.12569284541E+04  0.12569284541E+04  0.25500000920E-02 0.  1.
       -2   -1    0    0    0  501  0.00000000000E+00  0.00000000000E+00 -0.57374742994E+03  0.57374742995E+03  0.25500000920E-02 0. -1.
    10030    2    1    2    0    0  0.00000000000E+00  0.00000000000E+00  0.68318102418E+03  0.18306758841E+04  0.16984221739E+04 0.  0.
        1    1    3    3  502    0  0.68973403452E+03 -0.32682173550E+02  0.87440909529E+03  0.11141779161E+04  0.50400001928E-02 0.  1.
       -1    1    3    3    0  502 -0.68973403452E+03  0.32682173550E+02 -0.19122807111E+03  0.71649796794E+03  0.50400001928E-02 0. -1.
</event>
<event>
 5   0  0.1393870E-04  0.1699658E+04  0.7818609E-02  0.8761559E-01
        2   -1    0    0  501    0  0.00000000000E+00  0.00000000000E+00  0.15172054321E+04  0.15172054321E+04  0.25500000920E-02 0.  1.
       -2   -1    0    0    0  501  0.00000000000E+00  0.00000000000E+00 -0.47601307142E+03  0.47601307143E+03  0.25500000920E-02 0. -1.
    10030    2    1    2    0    0  0.00000000000E+00  0.00000000000E+00  0.10411923607E+04  0.19932185036E+04  0.16996583395E+04 0.  0.
        3    1    3    3  502    0 -0.94780049934E+02  0.29883167961E+03 -0.40572120385E+03  0.51273125130E+03  0.10100000352E+00 0. -1.
       -3    1    3    3    0  502  0.94780049934E+02 -0.29883167961E+03  0.14469135646E+04  0.14804872523E+04  0.10100000352E+00 0.  1.
</event>
<event>
 5   0  0.6601906E-05  0.1691009E+04  0.7818609E-02  0.8766509E-01
       -1   -1    0    0    0  501  0.00000000000E+00  0.00000000000E+00  0.78764466645E+03  0.78764466646E+03  0.50400001928E-02 0.  1.
        1   -1    0    0  501    0  0.00000000000E+00  0.00000000000E+00 -0.90761460424E+03  0.90761460425E+03  0.50400001928E-02 0. -1.
    10030    2    1    2    0    0  0.00000000000E+00  0.00000000000E+00 -0.11996993779E+03  0.16952592707E+04  0.16910089323E+04 0.  0.
        1    1    3    3  502    0 -0.61178936684E+02 -0.39336084546E+03  0.68781361755E+03  0.79470950010E+03  0.50400001928E-02 0.  1.
       -1    1    3    3    0  502  0.61178936684E+02  0.39336084546E+03 -0.80778355535E+03  0.90054977061E+03  0.50400001928E-02 0. -1.
</event>
<event>
 5   0  0.6539134E-05  0.1699977E+04  0.7818609E-02  0.8761377E-01
        1   -1    0    0  501    0  0.00000000000E+00  0.00000000000E+00  0.10368459496E+04  0.10368459497E+04  0.50400001928E-02 0. -1.
       -1   -1    0    0    0  501  0.00000000000E+00  0.00000000000E+00 -0.69680612730E+03  0.69680612732E+03  0.50400001928E-02 0.  1.
    10030    2    1    2    0    0  0.00000000000E+00  0.00000000000E+00  0.34003982234E+03  0.17336520770E+04  0.16999771890E+04 0.  0.
        2    1    3    3  502    0 -0.60237854886E+03 -0.55622040654E+03 -0.58561936128E+02  0.82199182304E+03  0.25500000920E-02 0. -1.
       -2    1    3    3    0  502  0.60237854886E+03  0.55622040654E+03  0.39860175847E+03  0.91166025395E+03  0.25500000920E-02 0.  1.
</event>
<event>
 5   0  0.6601906E-05  0.1700281E+04  0.7818609E-02  0.8761204E-01
       -1   -1    0    0    0  501  0.00000000000E+00  0.00000000000E+00  0.12446682765E+04  0.12446682765E+04  0.50400001928E-02 0.  1.
        1   -1    0    0  501    0  0.00000000000E+00  0.00000000000E+00 -0.58066760200E+03  0.58066760202E+03  0.50400001928E-02 0. -1.
    10030    2    1    2    0    0  0.00000000000E+00  0.00000000000E+00  0.66400067446E+03  0.18253358785E+04  0.17002806161E+04 0.  0.
        1    1    3    3  502    0 -0.31839866563E+03  0.47598505605E+03 -0.34254359702E+03  0.66728974197E+03  0.50400001928E-02 0. -1.
       -1    1    3    3    0  502  0.31839866563E+03 -0.47598505605E+03  0.10065442715E+04  0.11580461365E+04  0.50400001928E-02 0.  1.
</event>
<event>
 5   0  0.6564887E-05  0.1700787E+04  0.7818609E-02  0.8760916E-01
       -1   -1    0    0    0  501  0.00000000000E+00  0.00000000000E+00  0.13087717131E+04  0.13087717131E+04  0.50400001928E-02 0. -1.
        1   -1    0    0  501    0  0.00000000000E+00  0.00000000000E+00 -0.55255565691E+03  0.55255565693E+03  0.50400001928E-02 0.  1.
    10030    2    1    2    0    0  0.00000000000E+00  0.00000000000E+00  0.75621605622E+03  0.18613273701E+04  0.17007871280E+04 0.  0.
        4    1    3    3  502    0 -0.60415749080E+03 -0.35199851652E+03 -0.15158025111E+03  0.71546307714E+03  0.12699999809E+01 0.  1.
       -4    1    3    3    0  502  0.60415749080E+03  0.35199851652E+03  0.90779630733E+03  0.11458642929E+04  0.12699999809E+01 0. -1.
</event>
<event>
 5   0  0.6615842E-05  0.1702633E+04  0.7818609E-02  0.8759864E-01
        1   -1    0    0  501    0  0.00000000000E+00  0.00000000000E+00  0.19236551084E+04  0.19236551084E+04  0.50400001928E-02 0.  1.
       -1   -1    0    0    0  501  0.00000000000E+00  0.00000000000E+00 -0.37675119492E+03  0.37675119495E+03  0.50400001928E-02 0. -1.
    10030    2    1    2    0    0  0.00000000000E+00  0.00000000000E+00  0.15469039135E+04  0.23004063033E+04  0.17026325038E+04 0.  0.
        3    1    3    3  502    0  0.92757258788E+02 -0.56156758424E+03  0.16287848641E+04  0.17253701645E+04  0.10100000352E+00 0.  1.
       -3    1    3    3    0  502 -0.92757258788E+02  0.56156758424E+03 -0.81880950630E+02  0.57503613887E+03  0.10100000352E+00 0. -1.
</event>
<event>
 5   0  0.1255362E-04  0.1701205E+04  0.7818609E-02  0.8760677E-01
       -2   -1    0    0    0  501  0.00000000000E+00  0.00000000000E+00  0.48902119992E+03  0.48902119992E+03  0.25500000920E-02 0.  1.
        2   -1    0    0  501    0  0.00000000000E+00  0.00000000000E+00 -0.14795363752E+04  0.14795363752E+04  0.25500000920E-02 0. -1.
    10030    2    1    2    0    0  0.00000000000E+00  0.00000000000E+00 -0.99051517531E+03  0.19685575751E+04  0.17012050477E+04 0.  0.
        1    1    3    3  502    0  0.31488072784E+03 -0.14292731873E+03  0.40401367548E+03  0.53179426586E+03  0.50400001928E-02 0.  1.
       -1    1    3    3    0  502 -0.31488072784E+03  0.14292731873E+03 -0.13945288508E+04  0.14367633093E+04  0.50400001928E-02 0. -1.
</event>
<event>
 5   0  0.6834837E-05  0.1703410E+04  0.7818609E-02  0.8759422E-01
       -1   -1    0    0    0  501  0.00000000000E+00  0.00000000000E+00  0.34194507668E+03  0.34194507671E+03  0.50400001928E-02 0. -1.
        1   -1    0    0  501    0  0.00000000000E+00  0.00000000000E+00 -0.21213978469E+04  0.21213978469E+04  0.50400001928E-02 0.  1.
    10030    2    1    2    0    0  0.00000000000E+00  0.00000000000E+00 -0.17794527702E+04  0.24633429236E+04  0.17034101673E+04 0.  0.
        5    1    3    3  502    0  0.25442848573E+03  0.54831464135E+03 -0.17573969701E+04  0.18584533894E+04  0.46999998093E+01 0.  1.
       -5    1    3    3    0  502 -0.25442848573E+03 -0.54831464135E+03 -0.22055800163E+02  0.60488953420E+03  0.46999998093E+01 0. -1.
</event>
<event>
 5   0  0.1269175E-04  0.1719615E+04  0.7818609E-02  0.8750256E-01
       -2   -1    0    0    0  501  0.00000000000E+00  0.00000000000E+00  0.23051659206E+03  0.23051659207E+03  0.25500000920E-02 0. -1.
        2   -1    0    0  501    0  0.00000000000E+00  0.00000000000E+00 -0.32070098385E+04  0.32070098385E+04  0.25500000920E-02 0.  1.
    10030    2    1    2    0    0  0.00000000000E+00  0.00000000000E+00 -0.29764932464E+04  0.34375264306E+04  0.17196150484E+04 0.  0.
        2    1    3    3  502    0  0.43410763676E+03  0.92688872533E+02 -0.29602401626E+04  0.29933363472E+04  0.25500000920E-02 0.  1.
       -2    1    3    3    0  502 -0.43410763676E+03 -0.92688872533E+02 -0.16253083822E+02  0.44419008332E+03  0.25500000920E-02 0. -1.
</event>
<event>
 5   0  0.6564887E-05  0.1697503E+04  0.7818609E-02  0.8762790E-01
        1   -1    0    0  501    0  0.00000000000E+00  0.00000000000E+00  0.13571459301E+04  0.13571459302E+04  0.50400001928E-02 0.  1.
       -1   -1    0    0    0  501  0.00000000000E+00  0.00000000000E+00 -0.53080416973E+03  0.53080416975E+03  0.50400001928E-02 0. -1.
    10030    2    1    2    0    0  0.00000000000E+00  0.00000000000E+00  0.82634176042E+03  0.18879500999E+04  0.16975025404E+04 0.  0.
        4    1    3    3  502    0  0.64955702128E+03 -0.33742355392E+03  0.89102322754E+03  0.11531274793E+04  0.12699999809E+01 0. -1.
       -4    1    3    3    0  502 -0.64955702128E+03  0.33742355392E+03 -0.64681467124E+02  0.73482262059E+03  0.12699999809E+01 0.  1.
</event>
<event>
 5   0  0.1393870E-04  0.1702342E+04  0.7818609E-02  0.8760030E-01
        2   -1    0    0  501    0  0.00000000000E+00  0.00000000000E+00  0.74326700748E+03  0.74326700748E+03  0.25500000920E-02 0.  1.
       -2   -1    0    0    0  501  0.00000000000E+00  0.00000000000E+00 -0.97473990106E+03  0.97473990106E+03  0.25500000920E-02 0. -1.
    10030    2    1    2    0    0  0.00000000000E+00  0.00000000000E+00 -0.23147289358E+03  0.17180069085E+04  0.17023419273E+04 0.  0.
        3    1    3    3  502    0  0.12251491943E+03 -0.25891834801E+03  0.69316486628E+03  0.75001743878E+03  0.10100000352E+00 0.  1.
       -3    1    3    3    0  502 -0.12251491943E+03  0.25891834801E+03 -0.92463775986E+03  0.96798946977E+03  0.10100000352E+00 0. -1.
</event>
<event>
 5   0  0.6601906E-05  0.1686661E+04  0.7818609E-02  0.8769009E-01
        1   -1    0    0  501    0  0.00000000000E+00  0.00000000000E+00  0.99029233607E+03  0.99029233609E+03  0.50400001928E-02 0. -1.
       -1   -1    0    0    0  501  0.00000000000E+00  0.00000000000E+00 -0.71817775490E+03  0.71817775492E+03  0.50400001928E-02 0.  1.
    10030    2    1    2    0    0  0.00000000000E+00  0.00000000000E+00  0.27211458117E+03  0.17084700910E+04  0.16866605191E+04 0.  0.
        1    1    3    3  502    0  0.77938500452E+03  0.14094723572E+03 -0.15734102927E+03  0.80750437030E+03  0.50400001928E-02 0.  1.
       -1    1    3    3    0  502 -0.77938500452E+03 -0.14094723572E+03  0.42945561044E+03  0.90096572071E+03  0.50400001928E-02 0. -1.
</event>
<event>
 5   0  0.1393870E-04  0.1690692E+04  0.7818609E-02  0.8766691E-01
        2   -1    0    0  501    0  0.00000000000E+00  0.00000000000E+00  0.14770728930E+04  0.14770728930E+04  0.25500000920E-02 0. -1.
       -2   -1    0    0    0  501  0.00000000000E+00  0.00000000000E+00 -0.48380119605E+03  0.48380119605E+03  0.25500000920E-02 0.  1.
    10030    2    1    2    0    0  0.00000000000E+00  0.00000000000E+00  0.99327169693E+03  0.19608740890E+04  0.16906917310E+04 0.  0.
        3    1    3    3  502    0  0.34208957172E+01  0.80890008153E+03  0.21188385230E+03  0.83619723839E+03  0.10100000352E+00 0.  1.
       -3    1    3    3    0  502 -0.34208957172E+01 -0.80890008153E+03  0.78138784463E+03  0.11246768506E+04  0.10100000352E+00 0. -1.
</event>
<event>
 5   0  0.6615842E-05  0.1663693E+04  0.7818609E-02  0.8782347E-01
       -1   -1    0    0    0  501  0.00000000000E+00  0.00000000000E+00  0.69243333147E+03  0.69243333149E+03  0.50400001928E-02 0. -1.
        1   -1    0    0  501    0  0.00000000000E+00  0.00000000000E+00 -0.99932873486E+03  0.99932873488E+03  0.50400001928E-02 0.  1.
    10030    2    1    2    0    0  0.00000000000E+00  0.00000000000E+00 -0.30689540340E+03  0.16917620664E+04  0.16636929105E+04 0.  0.
        3    1    3    3  502    0 -0.42229846909E+03 -0.64100253276E+03 -0.47939949736E+03  0.90501057025E+03  0.10100000352E+00 0.  1.
       -3    1    3    3    0  502  0.42229846909E+03  0.64100253276E+03  0.17250409396E+03  0.78675149611E+03  0.10100000352E+00 0. -1.
</event>
<event>
 5   0  0.6834837E-05  0.1671759E+04  0.7818609E-02  0.8777637E-01
        1   -1    0    0  501    0  0.00000000000E+00  0.00000000000E+00  0.54391087923E+03  0.54391087925E+03  0.50400001928E-02 0.  1.
       -1   -1    0    0    0  501  0.00000000000E+00  0.00000000000E+00 -0.12845750570E+04  0.12845750570E+04  0.50400001928E-02 0. -1.
    10030    2    1    2    0    0  0.00000000000E+00  0.00000000000E+00 -0.74066417775E+03  0.18284859362E+04  0.16717587729E+04 0.  0.
        5    1    3    3  502    0 -0.33327489924E+03 -0.76481518464E+03 -0.31394471027E+03  0.89140215180E+03  0.46999998093E+01 0.  1.
       -5    1    3    3    0  502  0.33327489924E+03  0.76481518464E+03 -0.42671946748E+03  0.93708378443E+03  0.46999998093E+01 0. -1.
</event>
<event>
 5   0  0.6615842E-05  0.1693320E+04  0.7818609E-02  0.8765183E-01
       -1   -1    0    0    0  501  0.00000000000E+00  0.00000000000E+00  0.47911800841E+03  0.47911800844E+03  0.50400001928E-02 0. -1.
        1   -1    0    0  501    0  0.00000000000E+00  0.00000000000E+00 -0.14961516316E+04  0.14961516316E+04  0.50400001928E-02 0.  1.
    10030    2    1    2    0    0  0.00000000000E+00  0.00000000000E+00 -0.10170336232E+04  0.19752696400E+04  0.16933200407E+04 0.  0.
        3    1    3    3  502    0 -0.13381945141E+03  0.25826953374E+03  0.41900103291E+03  0.51007124347E+03  0.10100000352E+00 0. -1.
       -3    1    3    3    0  502  0.13381945141E+03 -0.25826953374E+03 -0.14360346561E+04  0.14651983966E+04  0.10100000352E+00 0.  1.
</event>
<event>
 5   0  0.1333546E-04  0.1697610E+04  0.7818609E-02  0.8762729E-01
        2   -1    0    0  501    0  0.00000000000E+00  0.00000000000E+00  0.74715570927E+03  0.74715570928E+03  0.25500000920E-02 0.  1.
       -2   -1    0    0    0  501  0.00000000000E+00  0.00000000000E+00 -0.96428370331E+03  0.96428370332E+03  0.25500000920E-02 0. -1.
    10030    2    1    2    0    0  0.00000000000E+00  0.00000000000E+00 -0.21712799404E+03  0.17114394126E+04  0.16976101723E+04 0.  0.
        5    1    3    3  502    0  0.72321717285E+03  0.36028069505E+03 -0.37068731967E+03  0.88897493626E+03  0.46999998093E+01 0. -1.
       -5    1    3    3    0  502 -0.72321717285E+03 -0.36028069505E+03  0.15355932563E+03  0.82246447633E+03  0.46999998093E+01 0.  1.
</event>
<event>
 5   0  0.1255362E-04  0.1705566E+04  0.7818609E-02  0.8758196E-01
        2   -1    0    0  501    0  0.00000000000E+00  0.00000000000E+00  0.14898929220E+04  0.14898929220E+04  0.25500000920E-02 0. -1.
       -2   -1    0    0    0  501  0.00000000000E+00  0.00000000000E+00 -0.48811488823E+03  0.48811488824E+03  0.25500000920E-02 0.  1.
    10030    2    1    2    0    0  0.00000000000E+00  0.00000000000E+00  0.10017780337E+04  0.19780078102E+04  0.17055660844E+04 0.  0.
        1    1    3    3  502    0  0.44576691768E+03 -0.51639877865E+03  0.10943560256E+04  0.12895700657E+04  0.50400001928E-02 0. -1.
       -1    1    3    3    0  502 -0.44576691768E+03  0.51639877865E+03 -0.92577991876E+02  0.68843774453E+03  0.50400001928E-02 0.  1.
</event>
<event>
 5   0  0.1255362E-04  0.1703613E+04  0.7818609E-02  0.8759307E-01
        2   -1    0    0  501    0  0.00000000000E+00  0.00000000000E+00  0.27585491373E+04  0.27585491373E+04  0.25500000920E-02 0. -1.
       -2   -1    0    0    0  501  0.00000000000E+00  0.00000000000E+00 -0.26302742156E+03  0.26302742157E+03  0.25500000920E-02 0.  1.
    10030    2    1    2    0    0  0.00000000000E+00  0.00000000000E+00  0.24955217157E+04  0.30215765589E+04  0.17036127105E+04 0.  0.
        1    1    3    3  502    0 -0.68166539312E+03 -0.46432337194E+03  0.87022296075E+03  0.11989795258E+04  0.50400001928E-02 0. -1.
       -1    1    3    3    0  502  0.68166539312E+03  0.46432337194E+03  0.16252987550E+04  0.18225970331E+04  0.50400001928E-02 0.  1.
</event>
<event>
 5   0  0.6539134E-05  0.1692582E+04  0.7818609E-02  0.8765606E-01
        1   -1    0    0  501    0  0.00000000000E+00  0.00000000000E+00  0.91740166518E+03  0.91740166519E+03  0.50400001928E-02 0.  1.
       -1   -1    0    0    0  501  0.00000000000E+00  0.00000000000E+00 -0.78069248435E+03  0.78069248437E+03  0.50400001928E-02 0. -1.
    10030    2    1    2    0    0  0.00000000000E+00  0.00000000000E+00  0.13670918083E+03  0.16980941496E+04  0.16925821518E+04 0.  0.
        2    1    3    3  502    0 -0.19618662450E+03 -0.27595453417E+02 -0.75709932932E+03  0.78259190843E+03  0.25500000920E-02 0. -1.
       -2    1    3    3    0  502  0.19618662450E+03  0.27595453417E+02  0.89380851015E+03  0.91550224112E+03  0.25500000920E-02 0.  1.
</event>
<event>
 5   0  0.4720875E-05  0.1707265E+04  0.7818609E-02  0.8757231E-01
        4   -1    0    0  501    0  0.00000000000E+00  0.00000000000E+00  0.42171277837E+03  0.42171469069E+03  0.12699999809E+01 0. -1.
       -4   -1    0    0    0  501  0.00000000000E+00  0.00000000000E+00 -0.17279207200E+04  0.17279211867E+04  0.12699999809E+01 0.  1.
    10030    2    1    2    0    0  0.00000000000E+00  0.00000000000E+00 -0.13062079416E+04  0.21496358774E+04  0.17072654213E+04 0.  0.
        5    1    3    3  502    0  0.33128054217E+03 -0.48116667544E+03  0.13058340626E+03  0.59861697534E+03  0.46999998093E+01 0. -1.
       -5    1    3    3    0  502 -0.33128054217E+03  0.48116667544E+03 -0.14367913479E+04  0.15510189021E+04  0.46999998093E+01 0.  1.
</event>
<event>
 5   0  0.1269175E-04  0.1704064E+04  0.7818609E-02  0.8759050E-01
        2   -1    0    0  501    0  0.00000000000E+00  0.00000000000E+00  0.92544505321E+03  0.92544505322E+03  0.25500000920E-02 0. -1.
       -2   -1    0    0    0  501  0.00000000000E+00  0.00000000000E+00 -0.78444273261E+03  0.78444273262E+03  0.25500000920E-02 0.  1.
    10030    2    1    2    0    0  0.00000000000E+00  0.00000000000E+00  0.14100232060E+03  0.17098877858E+04  0.17040641378E+04 0.  0.
        2    1    3    3  502    0 -0.61317056339E+03 -0.22132299045E+03 -0.48000539835E+03  0.80954752076E+03  0.25500000920E-02 0.  1.
       -2    1    3    3    0  502  0.61317056339E+03  0.22132299045E+03  0.62100771895E+03  0.90034026507E+03  0.25500000920E-02 0. -1.
</event>
<event>
 5   0  0.6834837E-05  0.1707469E+04  0.7818609E-02  0.8757116E-01
        1   -1    0    0  501    0  0.00000000000E+00  0.00000000000E+00  0.65027728774E+03  0.65027728776E+03  0.50400001928E-02 0. -1.
       -1   -1    0    0    0  501  0.00000000000E+00  0.00000000000E+00 -0.11208493853E+04  0.11208493853E+04  0.50400001928E-02 0.  1.
    10030    2    1    2    0    0  0.00000000000E+00  0.00000000000E+00 -0.47057209754E+03  0.17711266730E+04  0.17074693535E+04 0.  0.
        5    1    3    3  502    0 -0.67089878996E+03  0.70957255985E+02  0.30738249987E+03  0.74138128501E+03  0.46999998093E+01 0. -1.
       -5    1    3    3    0  502  0.67089878996E+03 -0.70957255985E+02 -0.77795459741E+03  0.10297453880E+04  0.46999998093E+01 0.  1.
</event>
<event>
 5   0  0.6564887E-05  0.1675546E+04  0.7818609E-02  0.8775436E-01
        1   -1    0    0  501    0  0.00000000000E+00  0.00000000000E+00  0.12492159167E+04  0.12492159167E+04  0.50400001928E-02 0.  1.
       -1   -1    0    0    0  501  0.00000000000E+00  0.00000000000E+00 -0.56184327481E+03  0.56184327483E+03  0.50400001928E-02 0. -1.
    10030    2    1    2    0    0  0.00000000000E+00  0.00000000000E+00  0.68737264186E+03  0.18110591915E+04  0.16755459547E+04 0.  0.
        4    1    3    3  502    0 -0.48899836879E+03  0.66342013232E+02 -0.38807725504E+03  0.62779474049E+03  0.12699999809E+01 0. -1.
       -4    1    3    3    0  502  0.48899836879E+03 -0.66342013232E+02  0.10754498969E+04  0.11832644510E+04  0.12699999809E+01 0.  1.
</event>
<event>
 5   0  0.6615842E-05  0.1692840E+04  0.7818609E-02  0.8765458E-01
        1   -1    0    0  501    0  0.00000000000E+00  0.00000000000E+00  0.10952420314E+04  0.10952420314E+04  0.50400001928E-02 0.  1.
       -1   -1    0    0    0  501  0.00000000000E+00  0.00000000000E+00 -0.65412665436E+03  0.65412665438E+03  0.50400001928E-02 0. -1.
    10030    2    1    2    0    0  0.00000000000E+00  0.00000000000E+00  0.44111537706E+03  0.17493686858E+04  0.16928402237E+04 0.  0.
        3    1    3    3  502    0  0.60355299194E+02  0.73912874719E+03 -0.20107782956E+03  0.76836603959E+03  0.10100000352E+00 0. -1.
       -3    1    3    3    0  502 -0.60355299194E+02 -0.73912874719E+03  0.64219320662E+03  0.98100264622E+03  0.10100000352E+00 0.  1.
</event>
<event>
 5   0  0.6834837E-05  0.1699378E+04  0.7818609E-02  0.8761719E-01
       -1   -1    0    0    0  501  0.00000000000E+00  0.00000000000E+00  0.11226294349E+04  0.11226294349E+04  0.50400001928E-02 0. -1.
        1   -1    0    0  501    0  0.00000000000E+00  0.00000000000E+00 -0.64310759542E+03  0.64310759544E+03  0.50400001928E-02 0.  1.
    10030    2    1    2    0    0  0.00000000000E+00  0.00000000000E+00  0.47952183951E+03  0.17657370304E+04  0.16993781409E+04 0.  0.
        5    1    3    3  502    0 -0.32143318110E+03  0.14812931541E+03  0.10423802073E+04  0.11008361234E+04  0.46999998093E+01 0. -1.
       -5    1    3    3    0  502  0.32143318110E+03 -0.14812931541E+03 -0.56285836776E+03  0.66490090702E+03  0.46999998093E+01 0.  1.
</event>
<event>
 5   0  0.1269175E-04  0.1702536E+04  0.7818609E-02  0.8759919E-01
        2   -1    0    0  501    0  0.00000000000E+00  0.00000000000E+00  0.13014161735E+04  0.13014161735E+04  0.25500000920E-02 0.  1.
       -2   -1    0    0    0  501  0.00000000000E+00  0.00000000000E+00 -0.55682187919E+03  0.55682187919E+03  0.25500000920E-02 0. -1.
    10030    2    1    2    0    0  0.00000000000E+00  0.00000000000E+00  0.74459429429E+03  0.18582380527E+04  0.17025357551E+04 0.  0.
        2    1    3    3  502    0  0.14929378717E+03  0.82689171551E+03  0.22336895056E+03  0.86944363368E+03  0.25500000920E-02 0. -1.
       -2    1    3    3    0  502 -0.14929378717E+03 -0.82689171551E+03  0.52122534374E+03  0.98879441899E+03  0.25500000920E-02 0.  1.
</event>
<event>
 5   0  0.1269175E-04  0.1702525E+04  0.7818609E-02  0.8759926E-01
       -2   -1    0    0    0  501  0.00000000000E+00  0.00000000000E+00  0.34758767675E+03  0.34758767676E+03  0.25500000920E-02 0.  1.
        2   -1    0    0  501    0  0.00000000000E+00  0.00000000000E+00 -0.20847911612E+04  0.20847911612E+04  0.25500000920E-02 0. -1.
    10030    2    1    2    0    0  0.00000000000E+00  0.00000000000E+00 -0.17372034844E+04  0.24323788379E+04  0.17025248500E+04 0.  0.
        2    1    3    3  502    0  0.48343449120E+03  0.45500930177E+03 -0.16298468956E+04  0.17598702438E+04  0.25500000920E-02 0. -1.
       -2    1    3    3    0  502 -0.48343449120E+03 -0.45500930177E+03 -0.10735658882E+03  0.67250859411E+03  0.25500000920E-02 0.  1.
</event>
<event>
 5   0  0.6564887E-05  0.1691582E+04  0.7818609E-02  0.8766180E-01
       -1   -1    0    0    0  501  0.00000000000E+00  0.00000000000E+00  0.54307917015E+03  0.54307917017E+03  0.50400001928E-02 0. -1.
        1   -1    0    0  501    0  0.00000000000E+00  0.00000000000E+00 -0.13172347659E+04  0.13172347659E+04  0.50400001928E-02 0.  1.
    10030    2    1    2    0    0  0.00000000000E+00  0.00000000000E+00 -0.77415559579E+03  0.18603139361E+04  0.16915824114E+04 0.  0.
        4    1    3    3  502    0  0.32946335976E+03  0.76594543467E+03 -0.54315922780E+03  0.99510907642E+03  0.12699999809E+01 0.  1.
       -4    1    3    3    0  502 -0.32946335976E+03 -0.76594543467E+03 -0.23099636799E+03  0.86520485970E+03  0.12699999809E+01 0. -1.
</event>
<event>
 5   0  0.6601906E-05  0.1699721E+04  0.7818609E-02  0.8761524E-01
        1   -1    0    0  501    0  0.00000000000E+00  0.00000000000E+00  0.14426736860E+04  0.14426736860E+04  0.50400001928E-02 0. -1.
       -1   -1    0    0    0  501  0.00000000000E+00  0.00000000000E+00 -0.50064168568E+03  0.50064168571E+03  0.50400001928E-02 0.  1.
    10030    2    1    2    0    0  0.00000000000E+00  0.00000000000E+00  0.94203200028E+03  0.19433153717E+04  0.16997206665E+04 0.  0.
        1    1    3    3  502    0  0.30950651746E+03  0.64427739211E+03  0.99666093453E+03  0.12264667386E+04  0.50400001928E-02 0. -1.
       -1    1    3    3    0  502 -0.30950651746E+03 -0.64427739211E+03 -0.54628934247E+02  0.71684863313E+03  0.50400001928E-02 0.  1.
</event>
<event>
 5   0  0.6601906E-05  0.1700156E+04  0.7818609E-02  0.8761275E-01
       -1   -1    0    0    0  501  0.00000000000E+00  0.00000000000E+00  0.55966958705E+03  0.55966958708E+03  0.50400001928E-02 0. -1.
        1   -1    0    0  501    0  0.00000000000E+00  0.00000000000E+00 -0.12911776574E+04  0.12911776574E+04  0.50400001928E-02 0.  1.
    10030    2    1    2    0    0  0.00000000000E+00  0.00000000000E+00 -0.73150807033E+03  0.18508472445E+04  0.17001563062E+04 0.  0.
        1    1    3    3  502    0  0.10387461427E+03  0.78088450400E+03 -0.71354191967E+03  0.10628793983E+04  0.50400001928E-02 0.  1.
       -1    1    3    3    0  502 -0.10387461427E+03 -0.78088450400E+03 -0.17966150660E+02  0.78796784622E+03  0.50400001928E-02 0. -1.
</event>
<event>
 5   0  0.6834837E-05  0.1697668E+04  0.7818609E-02  0.8762695E-01
       -1   -1    0    0    0  501  0.00000000000E+00  0.00000000000E+00  0.90225129238E+03  0.90225129240E+03  0.50400001928E-02 0. -1.
        1   -1    0    0  501    0  0.00000000000E+00  0.00000000000E+00 -0.79857963540E+03  0.79857963542E+03  0.50400001928E-02 0.  1.
    10030    2    1    2    0    0  0.00000000000E+00  0.00000000000E+00  0.10367165698E+03  0.17008309278E+04  0.16976684107E+04 0.  0.
        5    1    3    3  502    0  0.28053490450E+03  0.27078367796E+03  0.80721237776E+03  0.89645833462E+03  0.46999998093E+01 0. -1.
       -5    1    3    3    0  502 -0.28053490450E+03 -0.27078367796E+03 -0.70354072078E+03  0.80437259320E+03  0.46999998093E+01 0.  1.
</event>
<event>
 5   0  0.1285639E-04  0.1700090E+04  0.7818609E-02  0.8761313E-01
        2   -1    0    0  501    0  0.00000000000E+00  0.00000000000E+00  0.15274774160E+04  0.15274774160E+04  0.25500000920E-02 0.  1.
       -2   -1    0    0    0  501  0.00000000000E+00  0.00000000000E+00 -0.47305195183E+03  0.47305195183E+03  0.25500000920E-02 0. -1.
    10030    2    1    2    0    0  0.00000000000E+00  0.00000000000E+00  0.10544254642E+04  0.20005293678E+04  0.17000896129E+04 0.  0.
        4    1    3    3  502    0 -0.16326739802E+03 -0.17839835544E+03 -0.43171825755E+03  0.49483783534E+03  0.12699999809E+01 0. -1.
       -4    1    3    3    0  502  0.16326739802E+03  0.17839835544E+03  0.14861437217E+04  0.15056915325E+04  0.12699999809E+01 0.  1.
</event>
<event>
 5   0  0.1393870E-04  0.1700021E+04  0.7818609E-02  0.8761352E-01
       -2   -1    0    0    0  501  0.00000000000E+00  0.00000000000E+00  0.35632173865E+03  0.35632173866E+03  0.25500000920E-02 0.  1.
        2   -1    0    0  501    0  0.00000000000E+00  0.00000000000E+00 -0.20277124895E+04  0.20277124895E+04  0.25500000920E-02 0. -1.
    10030    2    1    2    0    0  0.00000000000E+00  0.00000000000E+00 -0.16713907508E+04  0.23840342281E+04  0.17000212231E+04 0.  0.
        3    1    3    3  502    0 -0.42373495570E+03  0.62743644224E+03 -0.13775388326E+04  0.15718909146E+04  0.10100000352E+00 0. -1.
       -3    1    3    3    0  502  0.42373495570E+03 -0.62743644224E+03 -0.29385191820E+03  0.81214331356E+03  0.10100000352E+00 0.  1.
</event>
<event>
 5   0  0.1255362E-04  0.1675899E+04  0.7818609E-02  0.8775231E-01
        2   -1    0    0  501    0  0.00000000000E+00  0.00000000000E+00  0.14273035778E+04  0.14273035778E+04  0.25500000920E-02 0. -1.
       -2   -1    0    0    0  501  0.00000000000E+00  0.00000000000E+00 -0.49194805162E+03  0.49194805162E+03  0.25500000920E-02 0.  1.
    10030    2    1    2    0    0  0.00000000000E+00  0.00000000000E+00  0.93535552615E+03  0.19192516294E+04  0.16758988205E+04 0.  0.
        1    1    3    3  502    0  0.39662011433E+02 -0.75181370778E+03  0.46337496607E+02  0.75428382587E+03  0.50400001928E-02 0. -1.
       -1    1    3    3    0  502 -0.39662011433E+02  0.75181370778E+03  0.88901802954E+03  0.11649678035E+04  0.50400001928E-02 0.  1.
</event>
<event>
 5   0  0.1393870E-04  0.1688878E+04  0.7818609E-02  0.8767733E-01
        2   -1    0    0  501    0  0.00000000000E+00  0.00000000000E+00  0.13243195269E+04  0.13243195269E+04  0.25500000920E-02 0. -1.
       -2   -1    0    0    0  501  0.00000000000E+00  0.00000000000E+00 -0.53844798073E+03  0.53844798073E+03  0.25500000920E-02 0.  1.
    10030    2    1    2    0    0  0.00000000000E+00  0.00000000000E+00  0.78587154617E+03  0.18627675076E+04  0.16888779412E+04 0.  0.
        3    1    3    3  502    0  0.78050597323E+03 -0.10916713351E+03  0.72742627108E+03  0.10724998962E+04  0.10100000352E+00 0.  1.
       -3    1    3    3    0  502 -0.78050597323E+03  0.10916713351E+03  0.58445275083E+02  0.79026761143E+03  0.10100000352E+00 0. -1.
</event>
<event>
 5   0  0.1333546E-04  0.1692070E+04  0.7818609E-02  0.8765900E-01
        2   -1    0    0  501    0  0.00000000000E+00  0.00000000000E+00  0.53765832673E+03  0.53765832673E+03  0.25500000920E-02 0. -1.
       -2   -1    0    0    0  501  0.00000000000E+00  0.00000000000E+00 -0.13312830011E+04  0.13312830011E+04  0.25500000920E-02 0.  1.
    10030    2    1    2    0    0  0.00000000000E+00  0.00000000000E+00 -0.79362467439E+03  0.18689413279E+04  0.16920702004E+04 0.  0.
        5    1    3    3  502    0  0.77435737493E+03 -0.88177365079E+02 -0.76038327552E+03  0.10888569270E+04  0.46999998093E+01 0.  1.
       -5    1    3    3    0  502 -0.77435737493E+03  0.88177365079E+02 -0.33241398871E+02  0.78008440083E+03  0.46999998093E+01 0. -1.
</event>
<event>
 5   0  0.4720875E-05  0.1701683E+04  0.7818609E-02  0.8760405E-01
       -4   -1    0    0    0  501  0.00000000000E+00  0.00000000000E+00  0.70246381748E+03  0.70246496551E+03  0.12699999809E+01 0.  1.
        4   -1    0    0  501    0  0.00000000000E+00  0.00000000000E+00 -0.10305581460E+04  0.10305589285E+04  0.12699999809E+01 0. -1.
    10030    2    1    2    0    0  0.00000000000E+00  0.00000000000E+00 -0.32809432849E+03  0.17330238940E+04  0.17016832634E+04 0.  0.
        5    1    3    3  502    0 -0.38695510265E+03  0.68564638555E+03  0.16448390365E+03  0.80431477796E+03  0.46999998093E+01 0.  1.
       -5    1    3    3    0  502  0.38695510265E+03 -0.68564638555E+03 -0.49257823213E+03  0.92870911606E+03  0.46999998093E+01 0. -1.
</event>
<event>
 5   0  0.6615842E-05  0.1702677E+04  0.7818609E-02  0.8759839E-01
        1   -1    0    0  501    0  0.00000000000E+00  0.00000000000E+00  0.17935231461E+04  0.17935231461E+04  0.50400001928E-02 0.  1.
       -1   -1    0    0    0  501  0.00000000000E+00  0.00000000000E+00 -0.40410826054E+03  0.40410826057E+03  0.50400001928E-02 0. -1.
    10030    2    1    2    0    0  0.00000000000E+00  0.00000000000E+00  0.13894148855E+04  0.21976314067E+04  0.17026773257E+04 0.  0.
        3    1    3    3  502    0  0.45246905386E+03 -0.34537217475E+02  0.16244144581E+04  0.16866070693E+04  0.10100000352E+00 0.  1.
       -3    1    3    3    0  502 -0.45246905386E+03  0.34537217475E+02 -0.23499957259E+03  0.51102433739E+03  0.10100000352E+00 0. -1.
</event>
<event>
 5   0  0.1255362E-04  0.1698873E+04  0.7818609E-02  0.8762008E-01
       -2   -1    0    0    0  501  0.00000000000E+00  0.00000000000E+00  0.55407904245E+03  0.55407904246E+03  0.25500000920E-02 0.  1.
        2   -1    0    0  501    0  0.00000000000E+00  0.00000000000E+00 -0.13022365997E+04  0.13022365997E+04  0.25500000920E-02 0. -1.
    10030    2    1    2    0    0  0.00000000000E+00  0.00000000000E+00 -0.74815755722E+03  0.18563156421E+04  0.16988725770E+04 0.  0.
        1    1    3    3  502    0  0.73101097277E+03 -0.31266885480E+03 -0.70079254639E+03  0.10598344438E+04  0.50400001928E-02 0. -1.
       -1    1    3    3    0  502 -0.73101097277E+03  0.31266885480E+03 -0.47365010826E+02  0.79648119837E+03  0.50400001928E-02 0.  1.
</event>
<event>
 5   0  0.6615842E-05  0.1698106E+04  0.7818609E-02  0.8762445E-01
        1   -1    0    0  501    0  0.00000000000E+00  0.00000000000E+00  0.51841424119E+03  0.51841424122E+03  0.50400001928E-02 0.  1.
       -1   -1    0    0    0  501  0.00000000000E+00  0.00000000000E+00 -0.13905693460E+04  0.13905693460E+04  0.50400001928E-02 0. -1.
    10030    2    1    2    0    0  0.00000000000E+00  0.00000000000E+00 -0.87215510481E+03  0.19089835872E+04  0.16981059477E+04 0.  0.
        3    1    3    3  502    0  0.70129901722E+02 -0.11278010282E+03  0.50666547230E+03  0.52378188755E+03  0.10100000352E+00 0.  1.
       -3    1    3    3    0  502 -0.70129901722E+02  0.11278010282E+03 -0.13788205771E+04  0.13852016997E+04  0.10100000352E+00 0. -1.
</event>
<event>
 5   0  0.6539134E-05  0.1698875E+04  0.7818609E-02  0.8762006E-01
       -1   -1    0    0    0  501  0.00000000000E+00  0.00000000000E+00  0.97809935276E+03  0.97809935277E+03  0.50400001928E-02 0. -1.
        1   -1    0    0  501    0  0.00000000000E+00  0.00000000000E+00 -0.73769981009E+03  0.73769981011E+03  0.50400001928E-02 0.  1.
    10030    2    1    2    0    0  0.00000000000E+00  0.00000000000E+00  0.24039954267E+03  0.17157991629E+04  0.16988745767E+04 0.  0.
        2    1    3    3  502    0  0.53848668524E+03  0.11072655148E+03  0.77419646837E+03  0.94953064775E+03  0.25500000920E-02 0. -1.
       -2    1    3    3    0  502 -0.53848668524E+03 -0.11072655148E+03 -0.53379692570E+03  0.76626851513E+03  0.25500000920E-02 0.  1.
</event>
<event>
 5   0  0.6564887E-05  0.1708470E+04  0.7818609E-02  0.8756548E-01
        1   -1    0    0  501    0  0.00000000000E+00  0.00000000000E+00  0.65996236343E+03  0.65996236344E+03  0.50400001928E-02 0.  1.
       -1   -1    0    0    0  501  0.00000000000E+00  0.00000000000E+00 -0.11056955567E+04  0.11056955567E+04  0.50400001928E-02 0. -1.
    10030    2    1    2    0    0  0.00000000000E+00  0.00000000000E+00 -0.44573319329E+03  0.17656579202E+04  0.17084700206E+04 0.  0.
        4    1    3    3  502    0  0.17272303864E+03 -0.39160520138E+02 -0.10865120209E+04  0.11008527508E+04  0.12699999809E+01 0. -1.
       -4    1    3    3    0  502 -0.17272303864E+03  0.39160520138E+02  0.64077882762E+03  0.66480516939E+03  0.12699999809E+01 0.  1.
</event>
<event>
 5   0  0.1285639E-04  0.1654042E+04  0.7818609E-02  0.8788019E-01
        2   -1    0    0  501    0  0.00000000000E+00  0.00000000000E+00  0.76875150305E+03  0.76875150305E+03  0.25500000920E-02 0. -1.
       -2   -1    0    0    0  501  0.00000000000E+00  0.00000000000E+00 -0.88970736926E+03  0.88970736926E+03  0.25500000920E-02 0.  1.
    10030    2    1    2    0    0  0.00000000000E+00  0.00000000000E+00 -0.12095586621E+03  0.16584588723E+04  0.16540421729E+04 0.  0.
        4    1    3    3  502    0 -0.58651989441E+03  0.13541120394E+03 -0.62910820721E+03  0.87070117146E+03  0.12699999809E+01 0.  1.
       -4    1    3    3    0  502  0.58651989441E+03 -0.13541120394E+03  0.50815234101E+03  0.78775770086E+03  0.12699999809E+01 0. -1.
</event>
<event>
 5   0  0.6834837E-05  0.1703666E+04  0.7818609E-02  0.8759277E-01
       -1   -1    0    0    0  501  0.00000000000E+00  0.00000000000E+00  0.55547017012E+03  0.55547017014E+03  0.50400001928E-02 0. -1.
        1   -1    0    0  501    0  0.00000000000E+00  0.00000000000E+00 -0.13063150451E+04  0.13063150452E+04  0.50400001928E-02 0.  1.
    10030    2    1    2    0    0  0.00000000000E+00  0.00000000000E+00 -0.75084487503E+03  0.18617852153E+04  0.17036655075E+04 0.  0.
        5    1    3    3  502    0 -0.27655183461E+03  0.58033008216E+03 -0.98615939731E+03  0.11771985255E+04  0.46999998093E+01 0.  1.
       -5    1    3    3    0  502  0.27655183461E+03 -0.58033008216E+03  0.23531452228E+03  0.68458668982E+03  0.46999998093E+01 0. -1.
</event>
<event>
 5   0  0.6834837E-05  0.1697999E+04  0.7818609E-02  0.8762506E-01
       -1   -1    0    0    0  501  0.00000000000E+00  0.00000000000E+00  0.12210269881E+04  0.12210269881E+04  0.50400001928E-02 0.  1.
        1   -1    0    0  501    0  0.00000000000E+00  0.00000000000E+00 -0.59032318558E+03  0.59032318561E+03  0.50400001928E-02 0. -1.
    10030    2    1    2    0    0  0.00000000000E+00  0.00000000000E+00  0.63070380251E+03  0.18113501737E+04  0.16979994597E+04 0.  0.
        5    1    3    3  502    0  0.18226935518E+03  0.79570938871E+03  0.56416652599E+03  0.99231119522E+03  0.46999998093E+01 0. -1.
       -5    1    3    3    0  502 -0.18226935518E+03 -0.79570938871E+03  0.66537276523E+02  0.81903897849E+03  0.46999998093E+01 0.  1.
</event>
<event>
 5   0  0.6834837E-05  0.1714143E+04  0.7818609E-02  0.8753339E-01
        1   -1    0    0  501    0  0.00000000000E+00  0.00000000000E+00  0.64445610176E+03  0.64445610178E+03  0.50400001928E-02 0. -1.
       -1   -1    0    0    0  501  0.00000000000E+00  0.00000000000E+00 -0.11398316190E+04  0.11398316190E+04  0.50400001928E-02 0.  1.
    10030    2    1    2    0    0  0.00000000000E+00  0.00000000000E+00 -0.49537551719E+03  0.17842877207E+04  0.17141428667E+04 0.  0.
        5    1    3    3  502    0  0.51778970834E+03 -0.54798470632E+03 -0.67199045888E+03  0.10099439030E+04  0.46999998093E+01 0. -1.
       -5    1    3    3    0  502 -0.51778970834E+03  0.54798470632E+03  0.17661494169E+03  0.77434381773E+03  0.46999998093E+01 0.  1.
</event>
<event>
 5   0  0.1333546E-04  0.1641355E+04  0.7818609E-02  0.8795537E-01
        2   -1    0    0  501    0  0.00000000000E+00  0.00000000000E+00  0.90106456000E+03  0.90106456000E+03  0.25500000920E-02 0.  1.
       -2   -1    0    0    0  501  0.00000000000E+00  0.00000000000E+00 -0.74746230902E+03  0.74746230902E+03  0.25500000920E-02 0. -1.
    10030    2    1    2    0    0  0.00000000000E+00  0.00000000000E+00  0.15360225097E+03  0.16485268690E+04  0.16413552895E+04 0.  0.
        5    1    3    3  502    0  0.45962637321E+03 -0.54776842082E+03 -0.32767805947E+03  0.78657589999E+03  0.46999998093E+01 0.  1.
       -5    1    3    3    0  502 -0.45962637321E+03  0.54776842082E+03  0.48128031045E+03  0.86195096903E+03  0.46999998093E+01 0. -1.
</event>
<event>
 5   0  0.1255362E-04  0.1703189E+04  0.7818609E-02  0.8759548E-01
       -2   -1    0    0    0  501  0.00000000000E+00  0.00000000000E+00  0.91140555153E+03  0.91140555154E+03  0.25500000920E-02 0.  1.
        2   -1    0    0  501    0  0.00000000000E+00  0.00000000000E+00 -0.79570847198E+03  0.79570847198E+03  0.25500000920E-02 0. -1.
    10030    2    1    2    0    0  0.00000000000E+00  0.00000000000E+00  0.11569707956E+03  0.17071140235E+04  0.17031889135E+04 0.  0.
        1    1    3    3  502    0 -0.37150559386E+03 -0.66507333009E+03 -0.32365203887E+03  0.82770138513E+03  0.50400001928E-02 0. -1.
       -1    1    3    3    0  502  0.37150559386E+03  0.66507333009E+03  0.43934911842E+03  0.87941263838E+03  0.50400001928E-02 0.  1.
</event>
<event>
 5   0  0.6539134E-05  0.1708951E+04  0.7818609E-02  0.8756275E-01
        1   -1    0    0  501    0  0.00000000000E+00  0.00000000000E+00  0.17276976661E+04  0.17276976661E+04  0.50400001928E-02 0. -1.
       -1   -1    0    0    0  501  0.00000000000E+00  0.00000000000E+00 -0.42260212000E+03  0.42260212003E+03  0.50400001928E-02 0.  1.
    10030    2    1    2    0    0  0.00000000000E+00  0.00000000000E+00  0.13050955461E+04  0.21502997861E+04  0.17089513702E+04 0.  0.
        2    1    3    3  502    0  0.25899904240E+03  0.24844006868E+03 -0.32316996153E+03  0.48295113183E+03  0.25500000920E-02 0.  1.
       -2    1    3    3    0  502 -0.25899904240E+03 -0.24844006868E+03  0.16282655076E+04  0.16673486543E+04  0.25500000920E-02 0. -1.
</event>
<event>
 5   0  0.4720875E-05  0.1696215E+04  0.7818609E-02  0.8763526E-01
       -4   -1    0    0    0  501  0.00000000000E+00  0.00000000000E+00  0.83218888564E+03  0.83218985471E+03  0.12699999809E+01 0. -1.
        4   -1    0    0  501    0  0.00000000000E+00  0.00000000000E+00 -0.86432900456E+03  0.86432993759E+03  0.12699999809E+01 0.  1.
    10030    2    1    2    0    0  0.00000000000E+00  0.00000000000E+00 -0.32140118916E+02  0.16965197923E+04  0.16962153220E+04 0.  0.
        3    1    3    3  502    0  0.20816016739E+03 -0.50909949140E+03  0.62962590769E+03  0.83602735677E+03  0.10100000352E+00 0. -1.
       -3    1    3    3    0  502 -0.20816016739E+03  0.50909949140E+03 -0.66176602660E+03  0.86049243553E+03  0.10100000352E+00 0.  1.
</event>
<event>
 5   0  0.1255362E-04  0.1688793E+04  0.7818609E-02  0.8767782E-01
        2   -1    0    0  501    0  0.00000000000E+00  0.00000000000E+00  0.91808528378E+03  0.91808528379E+03  0.25500000920E-02 0.  1.
       -2   -1    0    0    0  501  0.00000000000E+00  0.00000000000E+00 -0.77662228285E+03  0.77662228286E+03  0.25500000920E-02 0. -1.
    10030    2    1    2    0    0  0.00000000000E+00  0.00000000000E+00  0.14146300093E+03  0.16947075666E+04  0.16887930471E+04 0.  0.
        1    1    3    3  502    0  0.65625707370E+03 -0.32549793265E+03  0.49218240643E+03  0.88253372296E+03  0.50400001928E-02 0.  1.
       -1    1    3    3    0  502 -0.65625707370E+03  0.32549793265E+03 -0.35071940550E+03  0.81217384368E+03  0.50400001928E-02 0. -1.
</event>
<event>
 5   0  0.1255362E-04  0.1673710E+04  0.7818609E-02  0.8776502E-01
       -2   -1    0    0    0  501  0.00000000000E+00  0.00000000000E+00  0.66771409036E+03  0.66771409037E+03  0.25500000920E-02 0.  1.
        2   -1    0    0  501    0  0.00000000000E+00  0.00000000000E+00 -0.10488413715E+04  0.10488413715E+04  0.25500000920E-02 0. -1.
    10030    2    1    2    0    0  0.00000000000E+00  0.00000000000E+00 -0.38112728114E+03  0.17165554619E+04  0.16737098462E+04 0.  0.
        1    1    3    3  502    0  0.47429647835E+03 -0.68854276959E+03 -0.15390126878E+03  0.85013757445E+03  0.50400001928E-02 0.  1.
       -1    1    3    3    0  502 -0.47429647835E+03  0.68854276959E+03 -0.22722601236E+03  0.86641788742E+03  0.50400001928E-02 0. -1.
</event>
<event>
 5   0  0.1393870E-04  0.1707635E+04  0.7818609E-02  0.8757022E-01
       -2   -1    0    0    0  501  0.00000000000E+00  0.00000000000E+00  0.47560639362E+03  0.47560639363E+03  0.25500000920E-02 0.  1.
        2   -1    0    0  501    0  0.00000000000E+00  0.00000000000E+00 -0.15327884249E+04  0.15327884249E+04  0.25500000920E-02 0. -1.
    10030    2    1    2    0    0  0.00000000000E+00  0.00000000000E+00 -0.10571820313E+04  0.20083948185E+04  0.17076345920E+04 0.  0.
        3    1    3    3  502    0  0.15076277579E+03  0.83475424456E+03 -0.64298348964E+03  0.10644115001E+04  0.10100000352E+00 0. -1.
       -3    1    3    3    0  502 -0.15076277579E+03 -0.83475424456E+03 -0.41419854161E+03  0.94398331841E+03  0.10100000352E+00 0.  1.
</event>
<event>
 5   0  0.6564887E-05  0.1698742E+04  0.7818609E-02  0.8762082E-01
        1   -1    0    0  501    0  0.00000000000E+00  0.00000000000E+00  0.36325375363E+03  0.36325375367E+03  0.50400001928E-02 0.  1.
       -1   -1    0    0    0  501  0.00000000000E+00  0.00000000000E+00 -0.19860261764E+04  0.19860261764E+04  0.50400001928E-02 0. -1.
    10030    2    1    2    0    0  0.00000000000E+00  0.00000000000E+00 -0.16227724228E+04  0.23492799301E+04  0.16987424330E+04 0.  0.
        4    1    3    3  502    0  0.38046047583E+02  0.51938704260E+03 -0.17393250648E+04  0.18156166158E+04  0.12699999809E+01 0. -1.
       -4    1    3    3    0  502 -0.38046047583E+02 -0.51938704260E+03  0.11655264199E+03  0.53366331428E+03  0.12699999809E+01 0.  1.
</event>
<event>
 5   0  0.6564887E-05  0.1697820E+04  0.7818609E-02  0.8762608E-01
        1   -1    0    0  501    0  0.00000000000E+00  0.00000000000E+00  0.14729895148E+04  0.14729895148E+04  0.50400001928E-02 0. -1.
       -1   -1    0    0    0  501  0.00000000000E+00  0.00000000000E+00 -0.48924211365E+03  0.48924211368E+03  0.50400001928E-02 0.  1.
    10030    2    1    2    0    0  0.00000000000E+00  0.00000000000E+00  0.98374740113E+03  0.19622316285E+04  0.16978203717E+04 0.  0.
        4    1    3    3  502    0 -0.13996088852E+03  0.61144560489E+03 -0.16921531996E+03  0.64968470466E+03  0.12699999809E+01 0.  1.
       -4    1    3    3    0  502  0.13996088852E+03 -0.61144560489E+03  0.11529627211E+04  0.13125469238E+04  0.12699999809E+01 0. -1.
</event>
<event>
 5   0  0.6601906E-05  0.1697041E+04  0.7818609E-02  0.8763054E-01
        1   -1    0    0  501    0  0.00000000000E+00  0.00000000000E+00  0.78624101877E+03  0.78624101879E+03  0.50400001928E-02 0.  1.
       -1   -1    0    0    0  501  0.00000000000E+00  0.00000000000E+00 -0.91573353135E+03  0.91573353136E+03  0.50400001928E-02 0. -1.
    10030    2    1    2    0    0  0.00000000000E+00  0.00000000000E+00 -0.12949251258E+03  0.17019745502E+04  0.16970412660E+04 0.  0.
        1    1    3    3  502    0 -0.83448226541E+03 -0.82422553472E+02 -0.19486599277E+03  0.86088726542E+03  0.50400001928E-02 0. -1.
       -1    1    3    3    0  502  0.83448226541E+03  0.82422553472E+02  0.65373480198E+02  0.84108728473E+03  0.50400001928E-02 0.  1.
</event>
<event>
 5   0  0.1333546E-04  0.1708420E+04  0.7818609E-02  0.8756577E-01
        2   -1    0    0  501    0  0.00000000000E+00  0.00000000000E+00  0.63402544412E+03  0.63402544413E+03  0.25500000920E-02 0.  1.
       -2   -1    0    0    0  501  0.00000000000E+00  0.00000000000E+00 -0.11508604499E+04  0.11508604499E+04  0.25500000920E-02 0. -1.
    10030    2    1    2    0    0  0.00000000000E+00  0.00000000000E+00 -0.51683500579E+03  0.17848858941E+04  0.17084200981E+04 0.  0.
        5    1    3    3  502    0 -0.56128000679E+03 -0.33502054704E+03 -0.83291929368E+03  0.10587967948E+04  0.46999998093E+01 0. -1.
       -5    1    3    3    0  502  0.56128000679E+03  0.33502054704E+03  0.31608428788E+03  0.72608909922E+03  0.46999998093E+01 0.  1.
</event>
<event>
 5   0  0.6601906E-05  0.1704573E+04  0.7818609E-02  0.8758761E-01
        1   -1    0    0  501    0  0.00000000000E+00  0.00000000000E+00  0.39819079823E+03  0.39819079826E+03  0.50400001928E-02 0. -1.
       -1   -1    0    0    0  501  0.00000000000E+00  0.00000000000E+00 -0.18242314959E+04  0.18242314959E+04  0.50400001928E-02 0.  1.
    10030    2    1    2    0    0  0.00000000000E+00  0.00000000000E+00 -0.14260406977E+04  0.22224222942E+04  0.17045729032E+04 0.  0.
        1    1    3    3  502    0  0.20721963099E+03  0.79904600860E+03 -0.43651113461E+03  0.93378609434E+03  0.50400001928E-02 0. -1.
       -1    1    3    3    0  502 -0.20721963099E+03 -0.79904600860E+03 -0.98952956310E+03  0.12886361999E+04  0.50400001928E-02 0.  1.
</event>
<event>
 5   0  0.1333546E-04  0.1691363E+04  0.7818609E-02  0.8766306E-01
       -2   -1    0    0    0  501  0.00000000000E+00  0.00000000000E+00  0.24736673821E+03  0.24736673822E+03  0.25500000920E-02 0.  1.
        2   -1    0    0  501    0  0.00000000000E+00  0.00000000000E+00 -0.28911628744E+04  0.28911628744E+04  0.25500000920E-02 0. -1.
    10030    2    1    2    0    0  0.00000000000E+00  0.00000000000E+00 -0.26437961362E+04  0.31385296126E+04  0.16913633908E+04 0.  0.
        5    1    3    3  502    0  0.27575146246E+03  0.11711103572E+03 -0.27893665768E+04  0.28054129560E+04  0.46999998093E+01 0. -1.
       -5    1    3    3    0  502 -0.27575146246E+03 -0.11711103572E+03  0.14557044064E+03  0.33311665663E+03  0.46999998093E+01 0.  1.
</event>
<event>
 5   0  0.1255362E-04  0.1702434E+04  0.7818609E-02  0.8759978E-01
        2   -1    0    0  501    0  0.00000000000E+00  0.00000000000E+00  0.85888321557E+03  0.85888321557E+03  0.25500000920E-02 0.  1.
       -2   -1    0    0    0  501  0.00000000000E+00  0.00000000000E+00 -0.84361891135E+03  0.84361891135E+03  0.25500000920E-02 0. -1.
    10030    2    1    2    0    0  0.00000000000E+00  0.00000000000E+00  0.15264304219E+02  0.17025021269E+04  0.17024336971E+04 0.  0.
        1    1    3    3  502    0 -0.59288364770E+03  0.12225670058E+03  0.60608114087E+03  0.85661664115E+03  0.50400001928E-02 0.  1.
       -1    1    3    3    0  502  0.59288364770E+03 -0.12225670058E+03 -0.59081683665E+03  0.84588548577E+03  0.50400001928E-02 0. -1.
</event>
<event>
 5   0  0.1285639E-04  0.1701720E+04  0.7818609E-02  0.8760384E-01
       -2   -1    0    0    0  501  0.00000000000E+00  0.00000000000E+00  0.37946789465E+03  0.37946789466E+03  0.25500000920E-02 0.  1.
        2   -1    0    0  501    0  0.00000000000E+00  0.00000000000E+00 -0.19078367523E+04  0.19078367523E+04  0.25500000920E-02 0. -1.
    10030    2    1    2    0    0  0.00000000000E+00  0.00000000000E+00 -0.15283688577E+04  0.22873046470E+04  0.17017200660E+04 0.  0.
        4    1    3    3  502    0  0.65607380085E+03 -0.48177491010E+03 -0.10973003173E+04  0.13662391794E+04  0.12699999809E+01 0. -1.
       -4    1    3    3    0  502 -0.65607380085E+03  0.48177491010E+03 -0.43106854043E+03  0.92106546760E+03  0.12699999809E+01 0.  1.
</event>
<event>
 5   0  0.1333546E-04  0.1697237E+04  0.7818609E-02  0.8762942E-01
        2   -1    0    0  501    0  0.00000000000E+00  0.00000000000E+00  0.10677802630E+04  0.10677802630E+04  0.25500000920E-02 0.  1.
       -2   -1    0    0    0  501  0.00000000000E+00  0.00000000000E+00 -0.67443990572E+03  0.67443990572E+03  0.25500000920E-02 0. -1.
    10030    2    1    2    0    0  0.00000000000E+00  0.00000000000E+00  0.39334035727E+03  0.17422201687E+04  0.16972373080E+04 0.  0.
        5    1    3    3  502    0 -0.55382287496E+03  0.37249088390E+03 -0.34130221383E+03  0.74965227044E+03  0.46999998093E+01 0. -1.
       -5    1    3    3    0  502  0.55382287496E+03 -0.37249088390E+03  0.73464257110E+03  0.99256789827E+03  0.46999998093E+01 0.  1.
</event>
<event>
 5   0  0.6564887E-05  0.1699096E+04  0.7818609E-02  0.8761880E-01
        1   -1    0    0  501    0  0.00000000000E+00  0.00000000000E+00  0.21803861152E+03  0.21803861158E+03  0.50400001928E-02 0. -1.
       -1   -1    0    0    0  501  0.00000000000E+00  0.00000000000E+00 -0.33101101624E+04  0.33101101624E+04  0.50400001928E-02 0.  1.
    10030    2    1    2    0    0  0.00000000000E+00  0.00000000000E+00 -0.30920715509E+04  0.35281487740E+04  0.16990960231E+04 0.  0.
        4    1    3    3  502    0  0.58546226576E+03  0.34941711690E+03 -0.49362035692E+03  0.84173692795E+03  0.12699999809E+01 0. -1.
       -4    1    3    3    0  502 -0.58546226576E+03 -0.34941711690E+03 -0.25984511940E+04  0.26864118460E+04  0.12699999809E+01 0.  1.
</event>
<event>
 5   0  0.1255362E-04  0.1697053E+04  0.7818609E-02  0.8763047E-01
        2   -1    0    0  501    0  0.00000000000E+00  0.00000000000E+00  0.12068565968E+04  0.12068565968E+04  0.25500000920E-02 0. -1.
       -2   -1    0    0    0  501  0.00000000000E+00  0.00000000000E+00 -0.59658907299E+03  0.59658907299E+03  0.25500000920E-02 0.  1.
    10030    2    1    2    0    0  0.00000000000E+00  0.00000000000E+00  0.61026752385E+03  0.18034456698E+04  0.16970532795E+04 0.  0.
        1    1    3    3  502    0 -0.29592722345E+03  0.23352703156E+03 -0.50271497230E+03  0.62835510617E+03  0.50400001928E-02 0.  1.
       -1    1    3    3    0  502  0.29592722345E+03 -0.23352703156E+03  0.11129824962E+04  0.11750905637E+04  0.50400001928E-02 0. -1.
</event>
<event>
 5   0  0.6564887E-05  0.1691993E+04  0.7818609E-02  0.8765944E-01
       -1   -1    0    0    0  501  0.00000000000E+00  0.00000000000E+00  0.49428739121E+03  0.49428739124E+03  0.50400001928E-02 0.  1.
        1   -1    0    0  501    0  0.00000000000E+00  0.00000000000E+00 -0.14479639416E+04  0.14479639416E+04  0.50400001928E-02 0. -1.
    10030    2    1    2    0    0  0.00000000000E+00  0.00000000000E+00 -0.95367655034E+03  0.19422513328E+04  0.16919932852E+04 0.  0.
        4    1    3    3  502    0  0.34115510553E+03 -0.42561973693E+03 -0.12191444860E+04  0.13356099196E+04  0.12699999809E+01 0. -1.
       -4    1    3    3    0  502 -0.34115510553E+03  0.42561973693E+03  0.26546793569E+03  0.60664141325E+03  0.12699999809E+01 0.  1.
</event>
<event>
 5   0  0.6539134E-05  0.1701726E+04  0.7818609E-02  0.8760381E-01
       -1   -1    0    0    0  501  0.00000000000E+00  0.00000000000E+00  0.33382576458E+03  0.33382576461E+03  0.50400001928E-02 0. -1.
        1   -1    0    0  501    0  0.00000000000E+00  0.00000000000E+00 -0.21686985697E+04  0.21686985697E+04  0.50400001928E-02 0.  1.
    10030    2    1    2    0    0  0.00000000000E+00  0.00000000000E+00 -0.18348728051E+04  0.25025243343E+04  0.17017255457E+04 0.  0.
        2    1    3    3  502    0 -0.84708847150E+03 -0.52505327101E+01 -0.10349081845E+04  0.13373935086E+04  0.25500000920E-02 0. -1.
       -2    1    3    3    0  502  0.84708847150E+03  0.52505327101E+01 -0.79996462062E+03  0.11651308257E+04  0.25500000920E-02 0.  1.
</event>
<event>
 5   0  0.6539134E-05  0.1697057E+04  0.7818609E-02  0.8763045E-01
        1   -1    0    0  501    0  0.00000000000E+00  0.00000000000E+00  0.65592511950E+03  0.65592511952E+03  0.50400001928E-02 0.  1.
       -1   -1    0    0    0  501  0.00000000000E+00  0.00000000000E+00 -0.10976875042E+04  0.10976875042E+04  0.50400001928E-02 0. -1.
    10030    2    1    2    0    0  0.00000000000E+00  0.00000000000E+00 -0.44176238466E+03  0.17536126237E+04  0.16970572263E+04 0.  0.
        2    1    3    3  502    0 -0.10718923604E+03 -0.57837268816E+03  0.41105151448E+03  0.71761260182E+03  0.25500000920E-02 0.  1.
       -2    1    3    3    0  502  0.10718923604E+03  0.57837268816E+03 -0.85281389914E+03  0.10360000219E+04  0.25500000920E-02 0. -1.
</event>
<event>
 5   0  0.6601906E-05  0.1734080E+04  0.7818609E-02  0.8742163E-01
       -1   -1    0    0    0  501  0.00000000000E+00  0.00000000000E+00  0.94435445493E+03  0.94435445495E+03  0.50400001928E-02 0.  1.
        1   -1    0    0  501    0  0.00000000000E+00  0.00000000000E+00 -0.79605513992E+03  0.79605513994E+03  0.50400001928E-02 0. -1.
    10030    2    1    2    0    0  0.00000000000E+00  0.00000000000E+00  0.14829931501E+03  0.17404095949E+04  0.17340798341E+04 0.  0.
        1    1    3    3  502    0  0.18832100046E+03  0.35060988444E+03 -0.69896473185E+03  0.80432815858E+03  0.50400001928E-02 0. -1.
       -1    1    3    3    0  502 -0.18832100046E+03 -0.35060988444E+03  0.84726404686E+03  0.93608143631E+03  0.50400001928E-02 0.  1.
</event>
<event>
 5   0  0.6564887E-05  0.1696270E+04  0.7818609E-02  0.8763495E-01
       -1   -1    0    0    0  501  0.00000000000E+00  0.00000000000E+00  0.53580916798E+03  0.53580916800E+03  0.50400001928E-02 0.  1.
        1   -1    0    0  501    0  0.00000000000E+00  0.00000000000E+00 -0.13425170227E+04  0.13425170227E+04  0.50400001928E-02 0. -1.
    10030    2    1    2    0    0  0.00000000000E+00  0.00000000000E+00 -0.80670785474E+03  0.18783261907E+04  0.16962699419E+04 0.  0.
        4    1    3    3  502    0  0.22018191282E+03 -0.22700393156E+03  0.46807858766E+03  0.56489825349E+03  0.12699999809E+01 0.  1.
       -4    1    3    3    0  502 -0.22018191282E+03  0.22700393156E+03 -0.12747864424E+04  0.13134279372E+04  0.12699999809E+01 0. -1.
</event>
<event>
 5   0  0.1285639E-04  0.1673581E+04  0.7818609E-02  0.8776577E-01
        2   -1    0    0  501    0  0.00000000000E+00  0.00000000000E+00  0.65532057614E+03  0.65532057615E+03  0.25500000920E-02 0. -1.
       -2   -1    0    0    0  501  0.00000000000E+00  0.00000000000E+00 -0.10685121485E+04  0.10685121485E+04  0.25500000920E-02 0.  1.
    10030    2    1    2    0    0  0.00000000000E+00  0.00000000000E+00 -0.41319157240E+03  0.17238327247E+04  0.16735805888E+04 0.  0.
        4    1    3    3  502    0  0.80850712845E+03 -0.11728334420E+03 -0.20114791264E+02  0.81721807207E+03  0.12699999809E+01 0.  1.
       -4    1    3    3    0  502 -0.80850712845E+03  0.11728334420E+03 -0.39307678114E+03  0.90661465263E+03  0.12699999809E+01 0. -1.
</event>
<event>
 5   0  0.1285639E-04  0.1698521E+04  0.7818609E-02  0.8762208E-01
       -2   -1    0    0    0  501  0.00000000000E+00  0.00000000000E+00  0.38797102292E+03  0.38797102293E+03  0.25500000920E-02 0.  1.
        2   -1    0    0  501    0  0.00000000000E+00  0.00000000000E+00 -0.18590133302E+04  0.18590133302E+04  0.25500000920E-02 0. -1.
    10030    2    1    2    0    0  0.00000000000E+00  0.00000000000E+00 -0.14710423073E+04  0.22469843532E+04  0.16985208899E+04 0.  0.
        4    1    3    3  502    0  0.37163032286E+03 -0.11704883751E+03  0.26275374843E+03  0.46994752095E+03  0.12699999809E+01 0.  1.
       -4    1    3    3    0  502 -0.37163032286E+03  0.11704883751E+03 -0.17337960557E+04  0.17770368322E+04  0.12699999809E+01 0. -1.
</event>
<event>
 5   0  0.6834837E-05  0.1700630E+04  0.7818609E-02  0.8761005E-01
       -1   -1    0    0    0  501  0.00000000000E+00  0.00000000000E+00  0.40385341000E+03  0.40385341003E+03  0.50400001928E-02 0. -1.
        1   -1    0    0  501    0  0.00000000000E+00  0.00000000000E+00 -0.17903423985E+04  0.17903423985E+04  0.50400001928E-02 0.  1.
    10030    2    1    2    0    0  0.00000000000E+00  0.00000000000E+00 -0.13864889885E+04  0.21941958086E+04  0.17006303334E+04 0.  0.
        5    1    3    3  502    0  0.74812817523E+03 -0.36824216119E+03 -0.47844726496E+03  0.96136982020E+03  0.46999998093E+01 0. -1.
       -5    1    3    3    0  502 -0.74812817523E+03  0.36824216119E+03 -0.90804172358E+03  0.12328259884E+04  0.46999998093E+01 0.  1.
</event>
<event>
 5   0  0.1269175E-04  0.1686606E+04  0.7818609E-02  0.8769040E-01
       -2   -1    0    0    0  501  0.00000000000E+00  0.00000000000E+00  0.41295809377E+03  0.41295809378E+03  0.25500000920E-02 0.  1.
        2   -1    0    0  501    0  0.00000000000E+00  0.00000000000E+00 -0.17221117245E+04  0.17221117245E+04  0.25500000920E-02 0. -1.
    10030    2    1    2    0    0  0.00000000000E+00  0.00000000000E+00 -0.13091536307E+04  0.21350698183E+04  0.16866060299E+04 0.  0.
        2    1    3    3  502    0 -0.55274572334E+03  0.13497106347E+03  0.13335134412E+03  0.58440363075E+03  0.25500000920E-02 0. -1.
       -2    1    3    3    0  502  0.55274572334E+03 -0.13497106347E+03 -0.14425049748E+04  0.15506661875E+04  0.25500000920E-02 0.  1.
</event>
<event>
 5   0  0.6834837E-05  0.1699557E+04  0.7818609E-02  0.8761617E-01
        1   -1    0    0  501    0  0.00000000000E+00  0.00000000000E+00  0.77051943834E+03  0.77051943836E+03  0.50400001928E-02 0.  1.
       -1   -1    0    0    0  501  0.00000000000E+00  0.00000000000E+00 -0.93719072441E+03  0.93719072443E+03  0.50400001928E-02 0. -1.
    10030    2    1    2    0    0  0.00000000000E+00  0.00000000000E+00 -0.16667128607E+03  0.17077101628E+04  0.16995572019E+04 0.  0.
        5    1    3    3  502    0 -0.78685304599E+03 -0.28875781108E+03 -0.22394546981E+03  0.86757849956E+03  0.46999998093E+01 0. -1.
       -5    1    3    3    0  502  0.78685304599E+03  0.28875781108E+03  0.57274183739E+02  0.84013166323E+03  0.46999998093E+01 0.  1.
</event>
<event>
 5   0  0.1255362E-04  0.1707824E+04  0.7818609E-02  0.8756915E-01
        2   -1    0    0  501    0  0.00000000000E+00  0.00000000000E+00  0.13871756002E+04  0.13871756002E+04  0.25500000920E-02 0.  1.
       -2   -1    0    0    0  501  0.00000000000E+00  0.00000000000E+00 -0.52564767671E+03  0.52564767671E+03  0.25500000920E-02 0. -1.
    10030    2    1    2    0    0  0.00000000000E+00  0.00000000000E+00  0.86152792346E+03  0.19128232769E+04  0.17078239153E+04 0.  0.
        1    1    3    3  502    0  0.38560430470E+03  0.18983111620E+03 -0.39566667846E+03  0.58419059642E+03  0.50400001928E-02 0. -1.
       -1    1    3    3    0  502 -0.38560430470E+03 -0.18983111620E+03  0.12571946019E+04  0.13286326805E+04  0.50400001928E-02 0.  1.
</event>
<event>
 5   0  0.1285639E-04  0.1695747E+04  0.7818609E-02  0.8763794E-01
        2   -1    0    0  501    0  0.00000000000E+00  0.00000000000E+00  0.22666026174E+04  0.22666026174E+04  0.25500000920E-02 0.  1.
       -2   -1    0    0    0  501  0.00000000000E+00  0.00000000000E+00 -0.31716615961E+03  0.31716615962E+03  0.25500000920E-02 0. -1.
    10030    2    1    2    0    0  0.00000000000E+00  0.00000000000E+00  0.19494364578E+04  0.25837687770E+04  0.16957472070E+04 0.  0.
        4    1    3    3  502    0 -0.39578007483E+03 -0.38206065786E+03  0.19577852526E+04  0.20336019576E+04  0.12699999809E+01 0.  1.
       -4    1    3    3    0  502  0.39578007483E+03  0.38206065786E+03 -0.83487947598E+01  0.55016681942E+03  0.12699999809E+01 0. -1.
</event>
<event>
 5   0  0.6834837E-05  0.1699354E+04  0.7818609E-02  0.8761733E-01
        1   -1    0    0  501    0  0.00000000000E+00  0.00000000000E+00  0.96042637224E+03  0.96042637226E+03  0.50400001928E-02 0. -1.
       -1   -1    0    0    0  501  0.00000000000E+00  0.00000000000E+00 -0.75169854200E+03  0.75169854201E+03  0.50400001928E-02 0.  1.
    10030    2    1    2    0    0  0.00000000000E+00  0.00000000000E+00  0.20872783024E+03  0.17121249143E+04  0.16993541170E+04 0.  0.
        5    1    3    3  502    0 -0.63501449357E+03  0.55213168217E+03  0.22287532550E+03  0.87051036881E+03  0.46999998093E+01 0. -1.
       -5    1    3    3    0  502  0.63501449357E+03 -0.55213168217E+03 -0.14147495252E+02  0.84161454545E+03  0.46999998093E+01 0.  1.
</event>
<event>
 5   0  0.1285639E-04  0.1697458E+04  0.7818609E-02  0.8762815E-01
       -2   -1    0    0    0  501  0.00000000000E+00  0.00000000000E+00  0.37251476968E+03  0.37251476969E+03  0.25500000920E-02 0.  1.
        2   -1    0    0  501    0  0.00000000000E+00  0.00000000000E+00 -0.19337250791E+04  0.19337250791E+04  0.25500000920E-02 0. -1.
    10030    2    1    2    0    0  0.00000000000E+00  0.00000000000E+00 -0.15612103094E+04  0.23062398488E+04  0.16974582793E+04 0.  0.
        4    1    3    3  502    0  0.53857687805E+03 -0.29830518365E+03 -0.15743230874E+04  0.16904277070E+04  0.12699999809E+01 0. -1.
       -4    1    3    3    0  502 -0.53857687805E+03  0.29830518365E+03  0.13112777964E+02  0.61581214181E+03  0.12699999809E+01 0.  1.
</event>
<event>
 5   0  0.1333546E-04  0.1704317E+04  0.7818609E-02  0.8758906E-01
        2   -1    0    0  501    0  0.00000000000E+00  0.00000000000E+00  0.11098935844E+04  0.11098935844E+04  0.25500000920E-02 0. -1.
       -2   -1    0    0    0  501  0.00000000000E+00  0.00000000000E+00 -0.65427394417E+03  0.65427394417E+03  0.25500000920E-02 0.  1.
    10030    2    1    2    0    0  0.00000000000E+00  0.00000000000E+00  0.45561964026E+03  0.17641675286E+04  0.17043174036E+04 0.  0.
        5    1    3    3  502    0  0.43731627412E+03 -0.45783634642E+03 -0.36256322006E+03  0.72961210397E+03  0.46999998093E+01 0.  1.
       -5    1    3    3    0  502 -0.43731627412E+03  0.45783634642E+03  0.81818286032E+03  0.10345554246E+04  0.46999998093E+01 0. -1.
</event>
<event>
 5   0  0.1255362E-04  0.1697727E+04  0.7818609E-02  0.8762662E-01
       -2   -1    0    0    0  501  0.00000000000E+00  0.00000000000E+00  0.58495579990E+03  0.58495579990E+03  0.25500000920E-02 0. -1.
        2   -1    0    0  501    0  0.00000000000E+00  0.00000000000E+00 -0.12318354283E+04  0.12318354283E+04  0.25500000920E-02 0.  1.
    10030    2    1    2    0    0  0.00000000000E+00  0.00000000000E+00 -0.64687962837E+03  0.18167912282E+04  0.16977270432E+04 0.  0.
        1    1    3    3  502    0 -0.61787995708E+03  0.17634241002E+02  0.29915482528E+03  0.68671698489E+03  0.50400001928E-02 0. -1.
       -1    1    3    3    0  502  0.61787995708E+03 -0.17634241002E+02 -0.94603445365E+03  0.11300742433E+04  0.50400001928E-02 0.  1.
</event>
<event>
 5   0  0.6564887E-05  0.1710444E+04  0.7818609E-02  0.8755430E-01
       -1   -1    0    0    0  501  0.00000000000E+00  0.00000000000E+00  0.59437386502E+03  0.59437386504E+03  0.50400001928E-02 0. -1.
        1   -1    0    0  501    0  0.00000000000E+00  0.00000000000E+00 -0.12305459556E+04  0.12305459556E+04  0.50400001928E-02 0.  1.
    10030    2    1    2    0    0  0.00000000000E+00  0.00000000000E+00 -0.63617209059E+03  0.18249198207E+04  0.17104436334E+04 0.  0.
        4    1    3    3  502    0 -0.26372642423E+03 -0.79163089081E+03 -0.11799328066E+03  0.84270701984E+03  0.12699999809E+01 0. -1.
       -4    1    3    3    0  502  0.26372642423E+03  0.79163089081E+03 -0.51817880993E+03  0.98221280081E+03  0.12699999809E+01 0.  1.
</event>
<event>
 5   0  0.1255362E-04  0.1696557E+04  0.7818609E-02  0.8763331E-01
       -2   -1    0    0    0  501  0.00000000000E+00  0.00000000000E+00  0.80188243796E+03  0.80188243797E+03  0.25500000920E-02 0. -1.
        2   -1    0    0  501    0  0.00000000000E+00  0.00000000000E+00 -0.89735857160E+03  0.89735857161E+03  0.25500000920E-02 0.  1.
    10030    2    1    2    0    0  0.00000000000E+00  0.00000000000E+00 -0.95476133642E+02  0.16992410096E+04  0.16965566058E+04 0.  0.
        1    1    3    3  502    0  0.17336760010E+03  0.62720007844E+03 -0.59278641446E+03  0.88024541825E+03  0.50400001928E-02 0.  1.
       -1    1    3    3    0  502 -0.17336760010E+03 -0.62720007844E+03  0.49731028082E+03  0.81899559132E+03  0.50400001928E-02 0. -1.
</event>
<event>
 5   0  0.6539134E-05  0.1709304E+04  0.7818609E-02  0.8756075E-01
       -1   -1    0    0    0  501  0.00000000000E+00  0.00000000000E+00  0.10886027100E+04  0.10886027100E+04  0.50400001928E-02 0.  1.
        1   -1    0    0  501    0  0.00000000000E+00  0.00000000000E+00 -0.67097970941E+03  0.67097970943E+03  0.50400001928E-02 0. -1.
    10030    2    1    2    0    0  0.00000000000E+00  0.00000000000E+00  0.41762300057E+03  0.17595824194E+04  0.17093043381E+04 0.  0.
        2    1    3    3  502    0  0.19224667111E+03  0.27561543198E+03 -0.60011935541E+03  0.68779785522E+03  0.25500000920E-02 0. -1.
       -2    1    3    3    0  502 -0.19224667111E+03 -0.27561543198E+03  0.10177423560E+04  0.10717845642E+04  0.25500000920E-02 0.  1.
</event>
<event>
 5   0  0.1393870E-04  0.1734981E+04  0.7818609E-02  0.8741661E-01
       -2   -1    0    0    0  501  0.00000000000E+00  0.00000000000E+00  0.95695491218E+03  0.95695491218E+03  0.25500000920E-02 0. -1.
        2   -1    0    0  501    0  0.00000000000E+00  0.00000000000E+00 -0.78639013676E+03  0.78639013676E+03  0.25500000920E-02 0.  1.
    10030    2    1    2    0    0  0.00000000000E+00  0.00000000000E+00  0.17056477542E+03  0.17433450489E+04  0.17349811576E+04 0.  0.
        3    1    3    3  502    0 -0.42070355014E+03  0.42676115786E+03  0.71554079225E+03  0.93333552302E+03  0.10100000352E+00 0. -1.
       -3    1    3    3    0  502  0.42070355014E+03 -0.42676115786E+03 -0.54497601683E+03  0.81000952592E+03  0.10100000352E+00 0.  1.
</event>
<event>
 5   0  0.6564887E-05  0.1701093E+04  0.7818609E-02  0.8760742E-01
       -1   -1    0    0    0  501  0.00000000000E+00  0.00000000000E+00  0.12676519619E+04  0.12676519619E+04  0.50400001928E-02 0.  1.
        1   -1    0    0  501    0  0.00000000000E+00  0.00000000000E+00 -0.57068419130E+03  0.57068419132E+03  0.50400001928E-02 0. -1.
    10030    2    1    2    0    0  0.00000000000E+00  0.00000000000E+00  0.69696777060E+03  0.18383361532E+04  0.17010925134E+04 0.  0.
        4    1    3    3  502    0  0.12732526033E+03  0.40107025614E+03 -0.45031186831E+03  0.61632090985E+03  0.12699999809E+01 0. -1.
       -4    1    3    3    0  502 -0.12732526033E+03 -0.40107025614E+03  0.11472796389E+04  0.12220152434E+04  0.12699999809E+01 0.  1.
</event>
<event>
 5   0  0.6601906E-05  0.1698508E+04  0.7818609E-02  0.8762216E-01
       -1   -1    0    0    0  501  0.00000000000E+00  0.00000000000E+00  0.67531054983E+03  0.67531054985E+03  0.50400001928E-02 0. -1.
        1   -1    0    0  501    0  0.00000000000E+00  0.00000000000E+00 -0.10680015524E+04  0.10680015524E+04  0.50400001928E-02 0.  1.
    10030    2    1    2    0    0  0.00000000000E+00  0.00000000000E+00 -0.39269100256E+03  0.17433121023E+04  0.16985084228E+04 0.  0.
        1    1    3    3  502    0 -0.63446023882E+03 -0.33685310427E+03 -0.66131060304E+03  0.97639209451E+03  0.50400001928E-02 0.  1.
       -1    1    3    3    0  502  0.63446023882E+03  0.33685310427E+03  0.26861960048E+03  0.76692000775E+03  0.50400001928E-02 0. -1.
</event>
<event>
 5   0  0.1255362E-04  0.1721320E+04  0.7818609E-02  0.8749297E-01
        2   -1    0    0  501    0  0.00000000000E+00  0.00000000000E+00  0.95419589225E+03  0.95419589225E+03  0.25500000920E-02 0. -1.
       -2   -1    0    0    0  501  0.00000000000E+00  0.00000000000E+00 -0.77629321885E+03  0.77629321886E+03  0.25500000920E-02 0.  1.
    10030    2    1    2    0    0  0.00000000000E+00  0.00000000000E+00  0.17790267339E+03  0.17304891111E+04  0.17213201917E+04 0.  0.
        1    1    3    3  502    0 -0.67728028595E+02  0.36396689961E+03  0.87005640249E+03  0.94554594463E+03  0.50400001928E-02 0. -1.
       -1    1    3    3    0  502  0.67728028595E+02 -0.36396689961E+03 -0.69215372910E+03  0.78494316648E+03  0.50400001928E-02 0.  1.
</event>
<event>
 5   0  0.1285639E-04  0.1702439E+04  0.7818609E-02  0.8759975E-01
        2   -1    0    0  501    0  0.00000000000E+00  0.00000000000E+00  0.19021652564E+04  0.19021652564E+04  0.25500000920E-02 0.  1.
       -2   -1    0    0    0  501  0.00000000000E+00  0.00000000000E+00 -0.38092080616E+03  0.38092080617E+03  0.25500000920E-02 0. -1.
    10030    2    1    2    0    0  0.00000000000E+00  0.00000000000E+00  0.15212444503E+04  0.22830860626E+04  0.17024386308E+04 0.  0.
        4    1    3    3  502    0 -0.57681383353E+03  0.36963944722E+03  0.14381273516E+04  0.15929718804E+04  0.12699999809E+01 0.  1.
       -4    1    3    3    0  502  0.57681383353E+03 -0.36963944722E+03  0.83117098695E+02  0.69011418221E+03  0.12699999809E+01 0. -1.
</event>
<event>
 5   0  0.6834837E-05  0.1694830E+04  0.7818609E-02  0.8764319E-01
       -1   -1    0    0    0  501  0.00000000000E+00  0.00000000000E+00  0.14832946426E+04  0.14832946426E+04  0.50400001928E-02 0. -1.
        1   -1    0    0  501    0  0.00000000000E+00  0.00000000000E+00 -0.48413298048E+03  0.48413298051E+03  0.50400001928E-02 0.  1.
    10030    2    1    2    0    0  0.00000000000E+00  0.00000000000E+00  0.99916166209E+03  0.19674276231E+04  0.16948296154E+04 0.  0.
        5    1    3    3  502    0  0.60048173569E+03  0.58717211344E+03  0.36855299147E+03  0.91717108721E+03  0.46999998093E+01 0.  1.
       -5    1    3    3    0  502 -0.60048173569E+03 -0.58717211344E+03  0.63060867062E+03  0.10502565359E+04  0.46999998093E+01 0. -1.
</event>
<event>
 5   0  0.1255362E-04  0.1700600E+04  0.7818609E-02  0.8761022E-01
       -2   -1    0    0    0  501  0.00000000000E+00  0.00000000000E+00  0.53321751649E+03  0.53321751650E+03  0.25500000920E-02 0. -1.
        2   -1    0    0  501    0  0.00000000000E+00  0.00000000000E+00 -0.13559377199E+04  0.13559377199E+04  0.25500000920E-02 0.  1.
    10030    2    1    2    0    0  0.00000000000E+00  0.00000000000E+00 -0.82272020338E+03  0.18891552364E+04  0.17005995925E+04 0.  0.
        1    1    3    3  502    0  0.11429227694E+03 -0.50548111553E+03  0.33750203620E+03  0.61845089312E+03  0.50400001928E-02 0. -1.
       -1    1    3    3    0  502 -0.11429227694E+03  0.50548111553E+03 -0.11602222396E+04  0.12707043433E+04  0.50400001928E-02 0.  1.
</event>
<event>
 5   0  0.1393870E-04  0.1692834E+04  0.7818609E-02  0.8765462E-01
        2   -1    0    0  501    0  0.00000000000E+00  0.00000000000E+00  0.12349824079E+04  0.12349824079E+04  0.25500000920E-02 0. -1.
       -2   -1    0    0    0  501  0.00000000000E+00  0.00000000000E+00 -0.58010657986E+03  0.58010657987E+03  0.25500000920E-02 0.  1.
    10030    2    1    2    0    0  0.00000000000E+00  0.00000000000E+00  0.65487582804E+03  0.18150889878E+04  0.16928336254E+04 0.  0.
        3    1    3    3  502    0  0.25020923950E+03  0.44007286142E+02 -0.53826226756E+03  0.59520381689E+03  0.10100000352E+00 0.  1.
       -3    1    3    3    0  502 -0.25020923950E+03 -0.44007286142E+02  0.11931380956E+04  0.12198851709E+04  0.10100000352E+00 0. -1.
</event>
<event>
 5   0  0.6601906E-05  0.1697670E+04  0.7818609E-02  0.8762695E-01
       -1   -1    0    0    0  501  0.00000000000E+00  0.00000000000E+00  0.10803667380E+04  0.10803667380E+04  0.50400001928E-02 0.  1.
        1   -1    0    0  501    0  0.00000000000E+00  0.00000000000E+00 -0.66692212503E+03  0.66692212505E+03  0.50400001928E-02 0. -1.
    10030    2    1    2    0    0  0.00000000000E+00  0.00000000000E+00  0.41344461299E+03  0.17472888631E+04  0.16976695565E+04 0.  0.
        1    1    3    3  502    0 -0.27074108603E+03 -0.29261731837E+03 -0.56457729390E+03  0.69113902472E+03  0.50400001928E-02 0. -1.
       -1    1    3    3    0  502  0.27074108603E+03  0.29261731837E+03  0.97802190689E+03  0.10561498384E+04  0.50400001928E-02 0.  1.
</event>
<event>
 5   0  0.6601906E-05  0.1698759E+04  0.7818609E-02  0.8762072E-01
       -1   -1    0    0    0  501  0.00000000000E+00  0.00000000000E+00  0.72761551014E+03  0.72761551015E+03  0.50400001928E-02 0. -1.
        1   -1    0    0  501    0  0.00000000000E+00  0.00000000000E+00 -0.99152039730E+03  0.99152039732E+03  0.50400001928E-02 0.  1.
    10030    2    1    2    0    0  0.00000000000E+00  0.00000000000E+00 -0.26390488717E+03  0.17191359075E+04  0.16987590997E+04 0.  0.
        1    1    3    3  502    0  0.62752923278E+03 -0.33295935166E+03 -0.60314540142E+03  0.93190087624E+03  0.50400001928E-02 0.  1.
       -1    1    3    3    0  502 -0.62752923278E+03  0.33295935166E+03  0.33924051425E+03  0.78723503123E+03  0.50400001928E-02 0. -1.
</event>
<event>
 5   0  0.6615842E-05  0.1690626E+04  0.7818609E-02  0.8766729E-01
        1   -1    0    0  501    0  0.00000000000E+00  0.00000000000E+00  0.10830304577E+04  0.10830304577E+04  0.50400001928E-02 0. -1.
       -1   -1    0    0    0  501  0.00000000000E+00  0.00000000000E+00 -0.65977306466E+03  0.65977306468E+03  0.50400001928E-02 0.  1.
    10030    2    1    2    0    0  0.00000000000E+00  0.00000000000E+00  0.42325739299E+03  0.17428035223E+04  0.16906263031E+04 0.  0.
        3    1    3    3  502    0  0.26563602724E+03 -0.54786291661E+03  0.81610289558E+03  0.10182044101E+04  0.10100000352E+00 0. -1.
       -3    1    3    3    0  502 -0.26563602724E+03  0.54786291661E+03 -0.39284550259E+03  0.72459911225E+03  0.10100000352E+00 0.  1.
</event>
<event>
 5   0  0.6834837E-05  0.1732826E+04  0.7818609E-02  0.8742861E-01
        1   -1    0    0  501    0  0.00000000000E+00  0.00000000000E+00  0.10685376398E+04  0.10685376398E+04  0.50400001928E-02 0.  1.
       -1   -1    0    0    0  501  0.00000000000E+00  0.00000000000E+00 -0.70252223703E+03  0.70252223705E+03  0.50400001928E-02 0. -1.
    10030    2    1    2    0    0  0.00000000000E+00  0.00000000000E+00  0.36601540280E+03  0.17710598769E+04  0.17328259614E+04 0.  0.
        5    1    3    3  502    0  0.85879511651E+03 -0.54507738531E+02  0.80041527265E+02  0.86425047399E+03  0.46999998093E+01 0. -1.
       -5    1    3    3    0  502 -0.85879511651E+03  0.54507738531E+02  0.28597387553E+03  0.90680940290E+03  0.46999998093E+01 0.  1.
</event>
<event>
 5   0  0.6834837E-05  0.1689981E+04  0.7818609E-02  0.8767099E-01
        1   -1    0    0  501    0  0.00000000000E+00  0.00000000000E+00  0.15510809782E+04  0.15510809782E+04  0.50400001928E-02 0. -1.
       -1   -1    0    0    0  501  0.00000000000E+00  0.00000000000E+00 -0.46032983972E+03  0.46032983974E+03  0.50400001928E-02 0.  1.
    10030    2    1    2    0    0  0.00000000000E+00  0.00000000000E+00  0.10907511385E+04  0.20114108180E+04  0.16899808971E+04 0.  0.
        5    1    3    3  502    0 -0.51220374778E+03 -0.20482320008E+03 -0.21642656786E+03  0.59259410376E+03  0.46999998093E+01 0. -1.
       -5    1    3    3    0  502  0.51220374778E+03  0.20482320008E+03  0.13071777064E+04  0.14188167142E+04  0.46999998093E+01 0.  1.
</event>
<event>
 5   0  0.1285639E-04  0.1698244E+04  0.7818609E-02  0.8762367E-01
       -2   -1    0    0    0  501  0.00000000000E+00  0.00000000000E+00  0.37330930304E+03  0.37330930304E+03  0.25500000920E-02 0.  1.
        2   -1    0    0  501    0  0.00000000000E+00  0.00000000000E+00 -0.19313953631E+04  0.19313953631E+04  0.25500000920E-02 0. -1.
    10030    2    1    2    0    0  0.00000000000E+00  0.00000000000E+00 -0.15580860601E+04  0.23047046661E+04  0.16982436302E+04 0.  0.
        4    1    3    3  502    0  0.13096390406E+03 -0.68995679085E+03 -0.13129544447E+03  0.71444525616E+03  0.12699999809E+01 0.  1.
       -4    1    3    3    0  502 -0.13096390406E+03  0.68995679085E+03 -0.14267906156E+04  0.15902594100E+04  0.12699999809E+01 0. -1.
</event>
<event>
 5   0  0.1255362E-04  0.1713544E+04  0.7818609E-02  0.8753677E-01
       -2   -1    0    0    0  501  0.00000000000E+00  0.00000000000E+00  0.60218959097E+03  0.60218959097E+03  0.25500000920E-02 0. -1.
        2   -1    0    0  501    0  0.00000000000E+00  0.00000000000E+00 -0.12189819158E+04  0.12189819158E+04  0.25500000920E-02 0.  1.
    10030    2    1    2    0    0  0.00000000000E+00  0.00000000000E+00 -0.61679232484E+03  0.18211715068E+04  0.17135439548E+04 0.  0.
        1    1    3    3  502    0 -0.55875727148E+03  0.16075627891E+03  0.36041952977E+03  0.68407200433E+03  0.50400001928E-02 0. -1.
       -1    1    3    3    0  502  0.55875727148E+03 -0.16075627891E+03 -0.97721185462E+03  0.11370995025E+04  0.50400001928E-02 0.  1.
</event>
<event>
 5   0  0.6539134E-05  0.1696203E+04  0.7818609E-02  0.8763533E-01
        1   -1    0    0  501    0  0.00000000000E+00  0.00000000000E+00  0.64187721171E+03  0.64187721173E+03  0.50400001928E-02 0. -1.
       -1   -1    0    0    0  501  0.00000000000E+00  0.00000000000E+00 -0.11205817081E+04  0.11205817081E+04  0.50400001928E-02 0.  1.
    10030    2    1    2    0    0  0.00000000000E+00  0.00000000000E+00 -0.47870449642E+03  0.17624589199E+04  0.16962026557E+04 0.  0.
        2    1    3    3  502    0  0.36506208605E+03  0.52908450865E+03  0.33549873337E+03  0.72509319682E+03  0.25500000920E-02 0. -1.
       -2    1    3    3    0  502 -0.36506208605E+03 -0.52908450865E+03 -0.81420322979E+03  0.10373657231E+04  0.25500000920E-02 0.  1.
</event>
<event>
 5   0  0.1333546E-04  0.1705218E+04  0.7818609E-02  0.8758394E-01
        2   -1    0    0  501    0  0.00000000000E+00  0.00000000000E+00  0.17506597395E+04  0.17506597395E+04  0.25500000920E-02 0. -1.
       -2   -1    0    0    0  501  0.00000000000E+00  0.00000000000E+00 -0.41523878966E+03  0.41523878967E+03  0.25500000920E-02 0.  1.
    10030    2    1    2    0    0  0.00000000000E+00  0.00000000000E+00  0.13354209499E+04  0.21658985292E+04  0.17052176769E+04 0.  0.
        5    1    3    3  502    0 -0.65064024217E+03 -0.19686171841E+03  0.14062523453E+02  0.67993169177E+03  0.46999998093E+01 0.  1.
       -5    1    3    3    0  502  0.65064024217E+03  0.19686171841E+03  0.13213584264E+04  0.14859668374E+04  0.46999998093E+01 0. -1.
</event>
<event>
 5   0  0.6539134E-05  0.1710262E+04  0.7818609E-02  0.8755533E-01
       -1   -1    0    0    0  501  0.00000000000E+00  0.00000000000E+00  0.66130219552E+03  0.66130219554E+03  0.50400001928E-02 0. -1.
        1   -1    0    0  501    0  0.00000000000E+00  0.00000000000E+00 -0.11057712493E+04  0.11057712493E+04  0.50400001928E-02 0.  1.
    10030    2    1    2    0    0  0.00000000000E+00  0.00000000000E+00 -0.44446905380E+03  0.17670734449E+04  0.17102619155E+04 0.  0.
        2    1    3    3  502    0 -0.74976846237E+03  0.68170283559E+00 -0.64710672428E+03  0.99040412181E+03  0.25500000920E-02 0.  1.
       -2    1    3    3    0  502  0.74976846237E+03 -0.68170283559E+00  0.20263767047E+03  0.77666932306E+03  0.25500000920E-02 0. -1.
</event>
<event>
 5   0  0.1269175E-04  0.1689070E+04  0.7818609E-02  0.8767623E-01
       -2   -1    0    0    0  501  0.00000000000E+00  0.00000000000E+00  0.27015572897E+03  0.27015572899E+03  0.25500000920E-02 0. -1.
        2   -1    0    0  501    0  0.00000000000E+00  0.00000000000E+00 -0.26401052162E+04  0.26401052162E+04  0.25500000920E-02 0.  1.
    10030    2    1    2    0    0  0.00000000000E+00  0.00000000000E+00 -0.23699494872E+04  0.29102609452E+04  0.16890702167E+04 0.  0.
        2    1    3    3  502    0  0.20357383121E+03 -0.77846498176E+02  0.22086439201E+03  0.31029576487E+03  0.25500000920E-02 0. -1.
       -2    1    3    3    0  502 -0.20357383121E+03  0.77846498176E+02 -0.25908138792E+04  0.25999651803E+04  0.25500000920E-02 0.  1.
</event>
<event>
 5   0  0.1393870E-04  0.1682168E+04  0.7818609E-02  0.8771601E-01
       -2   -1    0    0    0  501  0.00000000000E+00  0.00000000000E+00  0.76195644403E+03  0.76195644404E+03  0.25500000920E-02 0. -1.
        2   -1    0    0  501    0  0.00000000000E+00  0.00000000000E+00 -0.92842828093E+03  0.92842828093E+03  0.25500000920E-02 0.  1.
    10030    2    1    2    0    0  0.00000000000E+00  0.00000000000E+00 -0.16647183689E+03  0.16903847250E+04  0.16821675440E+04 0.  0.
        3    1    3    3  502    0  0.69483644546E+03  0.31236234892E+03 -0.44142343374E+03  0.88046725153E+03  0.10100000352E+00 0. -1.
       -3    1    3    3    0  502 -0.69483644546E+03 -0.31236234892E+03  0.27495159685E+03  0.80991747344E+03  0.10100000352E+00 0.  1.
</event>
<event>
 5   0  0.1255362E-04  0.1695741E+04  0.7818609E-02  0.8763797E-01
        2   -1    0    0  501    0  0.00000000000E+00  0.00000000000E+00  0.10937535510E+04  0.10937535510E+04  0.25500000920E-02 0. -1.
       -2   -1    0    0    0  501  0.00000000000E+00  0.00000000000E+00 -0.65726341717E+03  0.65726341718E+03  0.25500000920E-02 0.  1.
    10030    2    1    2    0    0  0.00000000000E+00  0.00000000000E+00  0.43649013383E+03  0.17510169682E+04  0.16957407779E+04 0.  0.
        1    1    3    3  502    0 -0.66198653985E+03 -0.22467436557E+02 -0.32830343612E+03  0.73926592702E+03  0.50400001928E-02 0.  1.
       -1    1    3    3    0  502  0.66198653985E+03  0.22467436557E+02  0.76479356995E+03  0.10117510412E+04  0.50400001928E-02 0. -1.
</event>
<event>
 5   0  0.1285639E-04  0.1698053E+04  0.7818609E-02  0.8762476E-01
       -2   -1    0    0    0  501  0.00000000000E+00  0.00000000000E+00  0.61503763393E+03  0.61503763394E+03  0.25500000920E-02 0.  1.
        2   -1    0    0  501    0  0.00000000000E+00  0.00000000000E+00 -0.11720357301E+04  0.11720357302E+04  0.25500000920E-02 0. -1.
    10030    2    1    2    0    0  0.00000000000E+00  0.00000000000E+00 -0.55699809622E+03  0.17870733641E+04  0.16980530997E+04 0.  0.
        4    1    3    3  502    0  0.36676658070E+03 -0.19659957698E+03  0.50034895823E+03  0.65078399741E+03  0.12699999809E+01 0.  1.
       -4    1    3    3    0  502 -0.36676658070E+03  0.19659957698E+03 -0.10573470544E+04  0.11362893667E+04  0.12699999809E+01 0. -1.
</event>
<event>
 5   0  0.6834837E-05  0.1705649E+04  0.7818609E-02  0.8758149E-01
        1   -1    0    0  501    0  0.00000000000E+00  0.00000000000E+00  0.19746970033E+04  0.19746970033E+04  0.50400001928E-02 0.  1.
       -1   -1    0    0    0  501  0.00000000000E+00  0.00000000000E+00 -0.36831448550E+03  0.36831448554E+03  0.50400001928E-02 0. -1.
    10030    2    1    2    0    0  0.00000000000E+00  0.00000000000E+00  0.16063825178E+04  0.23430114888E+04  0.17056488628E+04 0.  0.
        5    1    3    3  502    0 -0.18540916328E+03  0.23306375399E+03  0.19009238964E+04  0.19241177254E+04  0.46999998093E+01 0.  1.
       -5    1    3    3    0  502  0.18540916328E+03 -0.23306375399E+03 -0.29454137868E+03  0.41889376338E+03  0.46999998093E+01 0. -1.
</event>
<event>
 5   0  0.6564887E-05  0.1701510E+04  0.7818609E-02  0.8760504E-01
       -1   -1    0    0    0  501  0.00000000000E+00  0.00000000000E+00  0.14182638896E+04  0.14182638896E+04  0.50400001928E-02 0.  1.
        1   -1    0    0  501    0  0.00000000000E+00  0.00000000000E+00 -0.51033090091E+03  0.51033090093E+03  0.50400001928E-02 0. -1.
    10030    2    1    2    0    0  0.00000000000E+00  0.00000000000E+00  0.90793298873E+03  0.19285947906E+04  0.17015097867E+04 0.  0.
        4    1    3    3  502    0 -0.57848835428E+03 -0.31994584513E+03 -0.15301017697E+03  0.67854833800E+03  0.12699999809E+01 0. -1.
       -4    1    3    3    0  502  0.57848835428E+03  0.31994584513E+03  0.10609431657E+04  0.12500464526E+04  0.12699999809E+01 0.  1.
</event>
<event>
 5   0  0.4720875E-05  0.1701820E+04  0.7818609E-02  0.8760327E-01
       -3   -1    0    0    0  501  0.00000000000E+00  0.00000000000E+00  0.84720937760E+03  0.84720938362E+03  0.10100000352E+00 0.  1.
        3   -1    0    0  501    0  0.00000000000E+00  0.00000000000E+00 -0.85462666523E+03  0.85462667120E+03  0.10100000352E+00 0. -1.
    10030    2    1    2    0    0  0.00000000000E+00  0.00000000000E+00 -0.74172876319E+01  0.17018360548E+04  0.17018198910E+04 0.  0.
        2    1    3    3  502    0 -0.54622278620E+03  0.61642284209E+03  0.21009535813E+03  0.84998618338E+03  0.25500000920E-02 0.  1.
       -2    1    3    3    0  502  0.54622278620E+03 -0.61642284209E+03 -0.21751264576E+03  0.85184987145E+03  0.25500000920E-02 0. -1.
</event>
<event>
 5   0  0.1393870E-04  0.1698192E+04  0.7818609E-02  0.8762396E-01
       -2   -1    0    0    0  501  0.00000000000E+00  0.00000000000E+00  0.70285854615E+03  0.70285854615E+03  0.25500000920E-02 0. -1.
        2   -1    0    0  501    0  0.00000000000E+00  0.00000000000E+00 -0.10257600404E+04  0.10257600404E+04  0.25500000920E-02 0.  1.
    10030    2    1    2    0    0  0.00000000000E+00  0.00000000000E+00 -0.32290149423E+03  0.17286185865E+04  0.16981922279E+04 0.  0.
        3    1    3    3  502    0  0.37580701316E+03  0.55903370567E+03  0.36473905310E+03  0.76601839552E+03  0.10100000352E+00 0. -1.
       -3    1    3    3    0  502 -0.37580701316E+03 -0.55903370567E+03 -0.68764054733E+03  0.96260019102E+03  0.10100000352E+00 0.  1.
</event>
<event>
 5   0  0.1269175E-04  0.1685500E+04  0.7818609E-02  0.8769677E-01
       -2   -1    0    0    0  501  0.00000000000E+00  0.00000000000E+00  0.48387223627E+03  0.48387223628E+03  0.25500000920E-02 0. -1.
        2   -1    0    0  501    0  0.00000000000E+00  0.00000000000E+00 -0.14678005509E+04  0.14678005509E+04  0.25500000920E-02 0.  1.
    10030    2    1    2    0    0  0.00000000000E+00  0.00000000000E+00 -0.98392831459E+03  0.19516727871E+04  0.16855004419E+04 0.  0.
        2    1    3    3  502    0 -0.44122848971E+03 -0.70717839592E+03 -0.63586357375E+03  0.10483827298E+04  0.25500000920E-02 0. -1.
       -2    1    3    3    0  502  0.44122848971E+03  0.70717839592E+03 -0.34806474084E+03  0.90329005730E+03  0.25500000920E-02 0.  1.
</event>
<event>
 5   0  0.1333546E-04  0.1699658E+04  0.7818609E-02  0.8761560E-01
        2   -1    0    0  501    0  0.00000000000E+00  0.00000000000E+00  0.15418995502E+04  0.15418995502E+04  0.25500000920E-02 0.  1.
       -2   -1    0    0    0  501  0.00000000000E+00  0.00000000000E+00 -0.46838920506E+03  0.46838920507E+03  0.25500000920E-02 0. -1.
    10030    2    1    2    0    0  0.00000000000E+00  0.00000000000E+00  0.10735103452E+04  0.20102887553E+04  0.16996577357E+04 0.  0.
        5    1    3    3  502    0 -0.10871369276E+03 -0.80742286299E+02 -0.45553051358E+03  0.47525584962E+03  0.46999998093E+01 0. -1.
       -5    1    3    3    0  502  0.10871369276E+03  0.80742286299E+02  0.15290408587E+04  0.15350329057E+04  0.46999998093E+01 0.  1.
</event>
<event>
 5   0  0.6564887E-05  0.1707485E+04  0.7818609E-02  0.8757107E-01
       -1   -1    0    0    0  501  0.00000000000E+00  0.00000000000E+00  0.44837620409E+03  0.44837620412E+03  0.50400001928E-02 0.  1.
        1   -1    0    0  501    0  0.00000000000E+00  0.00000000000E+00 -0.16255903927E+04  0.16255903927E+04  0.50400001928E-02 0. -1.
    10030    2    1    2    0    0  0.00000000000E+00  0.00000000000E+00 -0.11772141886E+04  0.20739665968E+04  0.17074847580E+04 0.  0.
        4    1    3    3  502    0  0.34589716179E+03 -0.70533017089E+03 -0.18258731017E+03  0.80652044936E+03  0.12699999809E+01 0.  1.
       -4    1    3    3    0  502 -0.34589716179E+03  0.70533017089E+03 -0.99462687841E+03  0.12674461474E+04  0.12699999809E+01 0. -1.
</event>
<event>
 5   0  0.6601906E-05  0.1692833E+04  0.7818609E-02  0.8765462E-01
       -1   -1    0    0    0  501  0.00000000000E+00  0.00000000000E+00  0.10763657430E+04  0.10763657430E+04  0.50400001928E-02 0.  1.
        1   -1    0    0  501    0  0.00000000000E+00  0.00000000000E+00 -0.66559261936E+03  0.66559261937E+03  0.50400001928E-02 0. -1.
    10030    2    1    2    0    0  0.00000000000E+00  0.00000000000E+00  0.41077312361E+03  0.17419583623E+04  0.16928332396E+04 0.  0.
        1    1    3    3  502    0 -0.29026916255E+03 -0.90263047764E+02  0.10182582039E+04  0.10626633401E+04  0.50400001928E-02 0.  1.
       -1    1    3    3    0  502  0.29026916255E+03  0.90263047764E+02 -0.60748508027E+03  0.67929502228E+03  0.50400001928E-02 0. -1.
</event>
<event>
 5   0  0.1269175E-04  0.1700020E+04  0.7818609E-02  0.8761353E-01
       -2   -1    0    0    0  501  0.00000000000E+00  0.00000000000E+00  0.76415836655E+03  0.76415836655E+03  0.25500000920E-02 0. -1.
        2   -1    0    0  501    0  0.00000000000E+00  0.00000000000E+00 -0.94550643171E+03  0.94550643171E+03  0.25500000920E-02 0.  1.
    10030    2    1    2    0    0  0.00000000000E+00  0.00000000000E+00 -0.18134806516E+03  0.17096647983E+04  0.17000195886E+04 0.  0.
        2    1    3    3  502    0  0.65471669206E+03  0.36780460187E+03 -0.49115754810E+03  0.89731260387E+03  0.25500000920E-02 0.  1.
       -2    1    3    3    0  502 -0.65471669206E+03 -0.36780460187E+03  0.30980948294E+03  0.81235219439E+03  0.25500000920E-02 0. -1.
</event>
<event>
 5   0  0.4720875E-05  0.1712960E+04  0.7818609E-02  0.8754007E-01
       -3   -1    0    0    0  501  0.00000000000E+00  0.00000000000E+00  0.99625229291E+03  0.99625229803E+03  0.10100000352E+00 0.  1.
        3   -1    0    0  501    0  0.00000000000E+00  0.00000000000E+00 -0.73631717456E+03  0.73631718149E+03  0.10100000352E+00 0. -1.
    10030    2    1    2    0    0  0.00000000000E+00  0.00000000000E+00  0.25993511835E+03  0.17325694795E+04  0.17129596421E+04 0.  0.
        5    1    3    3  502    0 -0.50441844093E+03  0.63646048709E+03 -0.14520517033E+03  0.82500093737E+03  0.46999998093E+01 0. -1.
       -5    1    3    3    0  502  0.50441844093E+03 -0.63646048709E+03  0.40514028867E+03  0.90756854214E+03  0.46999998093E+01 0.  1.
</event>
<event>
 5   0  0.6564887E-05  0.1703248E+04  0.7818609E-02  0.8759514E-01
       -1   -1    0    0    0  501  0.00000000000E+00  0.00000000000E+00  0.10470558753E+04  0.10470558753E+04  0.50400001928E-02 0.  1.
        1   -1    0    0  501    0  0.00000000000E+00  0.00000000000E+00 -0.69266907939E+03  0.69266907941E+03  0.50400001928E-02 0. -1.
    10030    2    1    2    0    0  0.00000000000E+00  0.00000000000E+00  0.35438679592E+03  0.17397249547E+04  0.17032477556E+04 0.  0.
        4    1    3    3  502    0  0.15234932885E+03  0.35186234506E+03 -0.59951572465E+03  0.71164467600E+03  0.12699999809E+01 0. -1.
       -4    1    3    3    0  502 -0.15234932885E+03 -0.35186234506E+03  0.95390252056E+03  0.10280802787E+04  0.12699999809E+01 0.  1.
</event>
<event>
 5   0  0.1285639E-04  0.1693656E+04  0.7818609E-02  0.8764991E-01
       -2   -1    0    0    0  501  0.00000000000E+00  0.00000000000E+00  0.29096945491E+03  0.29096945492E+03  0.25500000920E-02 0.  1.
        2   -1    0    0  501    0  0.00000000000E+00  0.00000000000E+00 -0.24645817931E+04  0.24645817931E+04  0.25500000920E-02 0. -1.
    10030    2    1    2    0    0  0.00000000000E+00  0.00000000000E+00 -0.21736123382E+04  0.27555512480E+04  0.16936564243E+04 0.  0.
        4    1    3    3  502    0  0.10858287633E+02  0.20166388158E+03  0.25121370385E+03  0.32232927488E+03  0.12699999809E+01 0.  1.
       -4    1    3    3    0  502 -0.10858287633E+02 -0.20166388158E+03 -0.24248260420E+04  0.24332219731E+04  0.12699999809E+01 0. -1.
</event>
<event>
 5   0  0.6834837E-05  0.1705033E+04  0.7818609E-02  0.8758499E-01
       -1   -1    0    0    0  501  0.00000000000E+00  0.00000000000E+00  0.65895362541E+03  0.65895362543E+03  0.50400001928E-02 0. -1.
        1   -1    0    0  501    0  0.00000000000E+00  0.00000000000E+00 -0.11029366765E+04  0.11029366765E+04  0.50400001928E-02 0.  1.
    10030    2    1    2    0    0  0.00000000000E+00  0.00000000000E+00 -0.44398305112E+03  0.17618903020E+04  0.17050326937E+04 0.  0.
        5    1    3    3  502    0  0.17430585012E+03  0.75926103009E+03  0.13582443837E+03  0.79077823014E+03  0.46999998093E+01 0. -1.
       -5    1    3    3    0  502 -0.17430585012E+03 -0.75926103009E+03 -0.57980748949E+03  0.97111207184E+03  0.46999998093E+01 0.  1.
</event>
<event>
 5   0  0.1333546E-04  0.1703068E+04  0.7818609E-02  0.8759616E-01
       -2   -1    0    0    0  501  0.00000000000E+00  0.00000000000E+00  0.17045843217E+04  0.17045843217E+04  0.25500000920E-02 0. -1.
        2   -1    0    0  501    0  0.00000000000E+00  0.00000000000E+00 -0.42538845753E+03  0.42538845754E+03  0.25500000920E-02 0.  1.
    10030    2    1    2    0    0  0.00000000000E+00  0.00000000000E+00  0.12791958642E+04  0.21299727792E+04  0.17030684019E+04 0.  0.
        5    1    3    3  502    0 -0.72629715031E+02  0.11899168701E+03  0.16901992970E+04  0.16959451201E+04  0.46999998093E+01 0. -1.
       -5    1    3    3    0  502  0.72629715031E+02 -0.11899168701E+03 -0.41100343281E+03  0.43402765909E+03  0.46999998093E+01 0.  1.
</event>
<event>
 5   0  0.1255362E-04  0.1700598E+04  0.7818609E-02  0.8761023E-01
       -2   -1    0    0    0  501  0.00000000000E+00  0.00000000000E+00  0.34655389904E+03  0.34655389905E+03  0.25500000920E-02 0.  1.
        2   -1    0    0  501    0  0.00000000000E+00  0.00000000000E+00 -0.20862793176E+04  0.20862793176E+04  0.25500000920E-02 0. -1.
    10030    2    1    2    0    0  0.00000000000E+00  0.00000000000E+00 -0.17397254186E+04  0.24328332167E+04  0.17005978149E+04 0.  0.
        1    1    3    3  502    0  0.49258939198E+03 -0.68805374371E+03 -0.75063501903E+03  0.11311565741E+04  0.50400001928E-02 0. -1.
       -1    1    3    3    0  502 -0.49258939198E+03  0.68805374371E+03 -0.98909039957E+03  0.13016766426E+04  0.50400001928E-02 0.  1.
</event>
<event>
 5   0  0.6615842E-05  0.1706707E+04  0.7818609E-02  0.8757548E-01
       -1   -1    0    0    0  501  0.00000000000E+00  0.00000000000E+00  0.48061093118E+03  0.48061093121E+03  0.50400001928E-02 0.  1.
        1   -1    0    0  501    0  0.00000000000E+00  0.00000000000E+00 -0.15151798446E+04  0.15151798447E+04  0.50400001928E-02 0. -1.
    10030    2    1    2    0    0  0.00000000000E+00  0.00000000000E+00 -0.10345689135E+04  0.19957907759E+04  0.17067067658E+04 0.  0.
        3    1    3    3  502    0 -0.33978373346E+03  0.63622413777E+03  0.16007016519E+02  0.72145018801E+03  0.10100000352E+00 0.  1.
       -3    1    3    3    0  502  0.33978373346E+03 -0.63622413777E+03 -0.10505759300E+04  0.12743405879E+04  0.10100000352E+00 0. -1.
</event>
<event>
 5   0  0.6564887E-05  0.1691615E+04  0.7818609E-02  0.8766161E-01
        1   -1    0    0  501    0  0.00000000000E+00  0.00000000000E+00  0.11091545525E+04  0.11091545525E+04  0.50400001928E-02 0.  1.
       -1   -1    0    0    0  501  0.00000000000E+00  0.00000000000E+00 -0.64498698878E+03  0.64498698880E+03  0.50400001928E-02 0. -1.
    10030    2    1    2    0    0  0.00000000000E+00  0.00000000000E+00  0.46416756375E+03  0.17541415413E+04  0.16916149148E+04 0.  0.
        4    1    3    3  502    0  0.70607713343E+03  0.18141073917E+03  0.67681127579E+03  0.99475117018E+03  0.12699999809E+01 0.  1.
       -4    1    3    3    0  502 -0.70607713343E+03 -0.18141073917E+03 -0.21264371203E+03  0.75939037116E+03  0.12699999809E+01 0. -1.
</event>
<event>
 5   0  0.6564887E-05  0.1676002E+04  0.7818609E-02  0.8775171E-01
       -1   -1    0    0    0  501  0.00000000000E+00  0.00000000000E+00  0.41804539387E+03  0.41804539390E+03  0.50400001928E-02 0.  1.
        1   -1    0    0  501    0  0.00000000000E+00  0.00000000000E+00 -0.16798305716E+04  0.16798305717E+04  0.50400001928E-02 0. -1.
    10030    2    1    2    0    0  0.00000000000E+00  0.00000000000E+00 -0.12617851778E+04  0.20978759656E+04  0.16760017100E+04 0.  0.
        4    1    3    3  502    0  0.56217799693E+03 -0.13945803335E+03 -0.13889308175E+04  0.15048664632E+04  0.12699999809E+01 0. -1.
       -4    1    3    3    0  502 -0.56217799693E+03  0.13945803335E+03  0.12714563973E+03  0.59300950237E+03  0.12699999809E+01 0.  1.
</event>
<event>
 5   0  0.6564887E-05  0.1697765E+04  0.7818609E-02  0.8762640E-01
       -1   -1    0    0    0  501  0.00000000000E+00  0.00000000000E+00  0.36758484529E+03  0.36758484533E+03  0.50400001928E-02 0.  1.
        1   -1    0    0  501    0  0.00000000000E+00  0.00000000000E+00 -0.19603667838E+04  0.19603667838E+04  0.50400001928E-02 0. -1.
    10030    2    1    2    0    0  0.00000000000E+00  0.00000000000E+00 -0.15927819385E+04  0.23279516292E+04  0.16977645549E+04 0.  0.
        4    1    3    3  502    0  0.54173619929E+03 -0.60256234865E+03 -0.44939678139E+03  0.92656277373E+03  0.12699999809E+01 0.  1.
       -4    1    3    3    0  502 -0.54173619929E+03  0.60256234865E+03 -0.11433851571E+04  0.14013888554E+04  0.12699999809E+01 0. -1.
</event>
<event>
 5   0  0.6615842E-05  0.1693231E+04  0.7818609E-02  0.8765234E-01
       -1   -1    0    0    0  501  0.00000000000E+00  0.00000000000E+00  0.63954709135E+03  0.63954709137E+03  0.50400001928E-02 0. -1.
        1   -1    0    0  501    0  0.00000000000E+00  0.00000000000E+00 -0.11207273035E+04  0.11207273035E+04  0.50400001928E-02 0.  1.
    10030    2    1    2    0    0  0.00000000000E+00  0.00000000000E+00 -0.48118021214E+03  0.17602743949E+04  0.16932310973E+04 0.  0.
        3    1    3    3  502    0  0.37027491454E+03  0.39244980053E+00  0.55090572778E+03  0.66377767171E+03  0.10100000352E+00 0. -1.
       -3    1    3    3    0  502 -0.37027491454E+03 -0.39244980053E+00 -0.10320859399E+04  0.10964967232E+04  0.10100000352E+00 0.  1.
</event>
<event>
 5   0  0.1333546E-04  0.1705558E+04  0.7818609E-02  0.8758201E-01
       -2   -1    0    0    0  501  0.00000000000E+00  0.00000000000E+00  0.46041326840E+03  0.46041326840E+03  0.25500000920E-02 0. -1.
        2   -1    0    0  501    0  0.00000000000E+00  0.00000000000E+00 -0.15795200946E+04  0.15795200946E+04  0.25500000920E-02 0.  1.
    10030    2    1    2    0    0  0.00000000000E+00  0.00000000000E+00 -0.11191068262E+04  0.20399333630E+04  0.17055579841E+04 0.  0.
        5    1    3    3  502    0 -0.36466550654E+03  0.27720281387E+03 -0.14198684127E+04  0.14919352302E+04  0.46999998093E+01 0.  1.
       -5    1    3    3    0  502  0.36466550654E+03 -0.27720281387E+03  0.30076158649E+03  0.54799813283E+03  0.46999998093E+01 0. -1.
</event>
<event>
 5   0  0.1269175E-04  0.1697977E+04  0.7818609E-02  0.8762519E-01
       -2   -1    0    0    0  501  0.00000000000E+00  0.00000000000E+00  0.30491368687E+03  0.30491368688E+03  0.25500000920E-02 0.  1.
        2   -1    0    0  501    0  0.00000000000E+00  0.00000000000E+00 -0.23638859066E+04  0.23638859066E+04  0.25500000920E-02 0. -1.
    10030    2    1    2    0    0  0.00000000000E+00  0.00000000000E+00 -0.20589722198E+04  0.26687995935E+04  0.16979766396E+04 0.  0.
        2    1    3    3  502    0 -0.86905074497E+02  0.65039231175E+03 -0.18275247757E+03  0.68114691457E+03  0.25500000920E-02 0.  1.
       -2    1    3    3    0  502  0.86905074497E+02 -0.65039231175E+03 -0.18762197422E+04  0.19876526789E+04  0.25500000920E-02 0. -1.
</event>
<event>
 5   0  0.6539134E-05  0.1698074E+04  0.7818609E-02  0.8762463E-01
        1   -1    0    0  501    0  0.00000000000E+00  0.00000000000E+00  0.12172950412E+04  0.12172950412E+04  0.50400001928E-02 0.  1.
       -1   -1    0    0    0  501  0.00000000000E+00  0.00000000000E+00 -0.59218509889E+03  0.59218509891E+03  0.50400001928E-02 0. -1.
    10030    2    1    2    0    0  0.00000000000E+00  0.00000000000E+00  0.62510994235E+03  0.18094801402E+04  0.16980741850E+04 0.  0.
        2    1    3    3  502    0  0.17241463491E+03  0.60708008415E+03 -0.29267893603E+03  0.69565364551E+03  0.25500000920E-02 0. -1.
       -2    1    3    3    0  502 -0.17241463491E+03 -0.60708008415E+03  0.91778887838E+03  0.11138264947E+04  0.25500000920E-02 0.  1.
</event>
<event>
 5   0  0.6601906E-05  0.1731720E+04  0.7818609E-02  0.8743477E-01
        1   -1    0    0  501    0  0.00000000000E+00  0.00000000000E+00  0.12163430489E+04  0.12163430489E+04  0.50400001928E-02 0.  1.
       -1   -1    0    0    0  501  0.00000000000E+00  0.00000000000E+00 -0.61636695897E+03  0.61636695899E+03  0.50400001928E-02 0. -1.
    10030    2    1    2    0    0  0.00000000000E+00  0.00000000000E+00  0.59997608996E+03  0.18327100079E+04  0.17317201462E+04 0.  0.
        1    1    3    3  502    0 -0.76810266596E+03  0.31240176931E+03  0.36177886079E+02  0.82999121103E+03  0.50400001928E-02 0.  1.
       -1    1    3    3    0  502  0.76810266596E+03 -0.31240176931E+03  0.56379820388E+03  0.10027187969E+04  0.50400001928E-02 0. -1.
</event>
<event>
 5   0  0.6615842E-05  0.1667388E+04  0.7818609E-02  0.8780186E-01
        1   -1    0    0  501    0  0.00000000000E+00  0.00000000000E+00  0.22935308173E+04  0.22935308173E+04  0.50400001928E-02 0.  1.
       -1   -1    0    0    0  501  0.00000000000E+00  0.00000000000E+00 -0.30304630909E+03  0.30304630913E+03  0.50400001928E-02 0. -1.
    10030    2    1    2    0    0  0.00000000000E+00  0.00000000000E+00  0.19904845082E+04  0.25965771264E+04  0.16673884359E+04 0.  0.
        3    1    3    3  502    0  0.65980520855E+03 -0.50091537093E+03  0.11412186705E+04  0.14101911878E+04  0.10100000352E+00 0. -1.
       -3    1    3    3    0  502 -0.65980520855E+03  0.50091537093E+03  0.84926583771E+03  0.11863859386E+04  0.10100000352E+00 0.  1.
</event>
<event>
 5   0  0.6601906E-05  0.1733973E+04  0.7818609E-02  0.8742222E-01
        1   -1    0    0  501    0  0.00000000000E+00  0.00000000000E+00  0.16561044555E+04  0.16561044555E+04  0.50400001928E-02 0. -1.
       -1   -1    0    0    0  501  0.00000000000E+00  0.00000000000E+00 -0.45387555295E+03  0.45387555298E+03  0.50400001928E-02 0.  1.
    10030    2    1    2    0    0  0.00000000000E+00  0.00000000000E+00  0.12022289026E+04  0.21099800085E+04  0.17339726936E+04 0.  0.
        1    1    3    3  502    0 -0.40612663279E+03 -0.46223710621E+03  0.13443515414E+04  0.14784732162E+04  0.50400001928E-02 0. -1.
       -1    1    3    3    0  502  0.40612663279E+03  0.46223710621E+03 -0.14212263882E+03  0.63150679229E+03  0.50400001928E-02 0.  1.
</event>
<event>
 5   0  0.6564887E-05  0.1704645E+04  0.7818609E-02  0.8758719E-01
        1   -1    0    0  501    0  0.00000000000E+00  0.00000000000E+00  0.46999504918E+03  0.46999504921E+03  0.50400001928E-02 0. -1.
       -1   -1    0    0    0  501  0.00000000000E+00  0.00000000000E+00 -0.15456627617E+04  0.15456627617E+04  0.50400001928E-02 0.  1.
    10030    2    1    2    0    0  0.00000000000E+00  0.00000000000E+00 -0.10756677125E+04  0.20156578109E+04  0.17046452367E+04 0.  0.
        4    1    3    3  502    0 -0.18419293109E+03 -0.69307418926E+03  0.68295889616E+01  0.71716603647E+03  0.12699999809E+01 0. -1.
       -4    1    3    3    0  502  0.18419293109E+03  0.69307418926E+03 -0.10824973014E+04  0.12984917744E+04  0.12699999809E+01 0.  1.
</event>
<event>
 5   0  0.6564887E-05  0.1695470E+04  0.7818609E-02  0.8763952E-01
        1   -1    0    0  501    0  0.00000000000E+00  0.00000000000E+00  0.23795607538E+04  0.23795607538E+04  0.50400001928E-02 0. -1.
       -1   -1    0    0    0  501  0.00000000000E+00  0.00000000000E+00 -0.30201156580E+03  0.30201156584E+03  0.50400001928E-02 0.  1.
    10030    2    1    2    0    0  0.00000000000E+00  0.00000000000E+00  0.20775491880E+04  0.26815723197E+04  0.16954702820E+04 0.  0.
        4    1    3    3  502    0  0.67351984573E+03  0.90958125215E+02  0.23736356727E+03  0.71989265804E+03  0.12699999809E+01 0.  1.
       -4    1    3    3    0  502 -0.67351984573E+03 -0.90958125215E+02  0.18401856207E+04  0.19616796616E+04  0.12699999809E+01 0. -1.
</event>
<event>
 5   0  0.6615842E-05  0.1671994E+04  0.7818609E-02  0.8777500E-01
        1   -1    0    0  501    0  0.00000000000E+00  0.00000000000E+00  0.79956848559E+03  0.79956848560E+03  0.50400001928E-02 0.  1.
       -1   -1    0    0    0  501  0.00000000000E+00  0.00000000000E+00 -0.87408552775E+03  0.87408552776E+03  0.50400001928E-02 0. -1.
    10030    2    1    2    0    0  0.00000000000E+00  0.00000000000E+00 -0.74517042162E+02  0.16736540134E+04  0.16719943083E+04 0.  0.
        3    1    3    3  502    0  0.35868944576E+03 -0.28599184518E+02  0.71808657932E+03  0.80319635050E+03  0.10100000352E+00 0.  1.
       -3    1    3    3    0  502 -0.35868944576E+03  0.28599184518E+02 -0.79260362148E+03  0.87045766287E+03  0.10100000352E+00 0. -1.
</event>
<event>
 5   0  0.1269175E-04  0.1709171E+04  0.7818609E-02  0.8756151E-01
       -2   -1    0    0    0  501  0.00000000000E+00  0.00000000000E+00  0.42097233981E+03  0.42097233982E+03  0.25500000920E-02 0. -1.
        2   -1    0    0  501    0  0.00000000000E+00  0.00000000000E+00 -0.17348328728E+04  0.17348328728E+04  0.25500000920E-02 0.  1.
    10030    2    1    2    0    0  0.00000000000E+00  0.00000000000E+00 -0.13138605330E+04  0.21558052126E+04  0.17091713240E+04 0.  0.
        2    1    3    3  502    0  0.78472915225E+01 -0.49755276500E+02 -0.17329588919E+04  0.17336907708E+04  0.25500000920E-02 0.  1.
       -2    1    3    3    0  502 -0.78472915225E+01  0.49755276500E+02  0.41909835896E+03  0.42211444184E+03  0.25500000920E-02 0. -1.
</event>
<event>
 5   0  0.4720875E-05  0.1689596E+04  0.7818609E-02  0.8767321E-01
       -3   -1    0    0    0  501  0.00000000000E+00  0.00000000000E+00  0.36341716976E+03  0.36341718379E+03  0.10100000352E+00 0. -1.
        3   -1    0    0  501    0  0.00000000000E+00  0.00000000000E+00 -0.19638127651E+04  0.19638127677E+04  0.10100000352E+00 0.  1.
    10030    2    1    2    0    0  0.00000000000E+00  0.00000000000E+00 -0.16003955954E+04  0.23272299515E+04  0.16895955686E+04 0.  0.
        2    1    3    3  502    0  0.41635922769E+03  0.23053766575E+03  0.16119654467E+03  0.50248079350E+03  0.25500000920E-02 0. -1.
       -2    1    3    3    0  502 -0.41635922769E+03 -0.23053766575E+03 -0.17615921400E+04  0.18247491580E+04  0.25500000920E-02 0.  1.
</event>
<event>
 5   0  0.1255362E-04  0.1698038E+04  0.7818609E-02  0.8762484E-01
        2   -1    0    0  501    0  0.00000000000E+00  0.00000000000E+00  0.19765083422E+04  0.19765083422E+04  0.25500000920E-02 0.  1.
       -2   -1    0    0    0  501  0.00000000000E+00  0.00000000000E+00 -0.36470017820E+03  0.36470017821E+03  0.25500000920E-02 0. -1.
    10030    2    1    2    0    0  0.00000000000E+00  0.00000000000E+00  0.16118081640E+04  0.23412085204E+04  0.16980376258E+04 0.  0.
        1    1    3    3  502    0 -0.55453298418E+03 -0.40372892434E+03  0.11606399255E+03  0.69568292007E+03  0.50400001928E-02 0.  1.
       -1    1    3    3    0  502  0.55453298418E+03  0.40372892434E+03  0.14957441715E+04  0.16455256004E+04  0.50400001928E-02 0. -1.
</event>
<event>
 5   0  0.6615842E-05  0.1704119E+04  0.7818609E-02  0.8759018E-01
        1   -1    0    0  501    0  0.00000000000E+00  0.00000000000E+00  0.66377846749E+03  0.66377846751E+03  0.50400001928E-02 0.  1.
       -1   -1    0    0    0  501  0.00000000000E+00  0.00000000000E+00 -0.10937470388E+04  0.10937470388E+04  0.50400001928E-02 0. -1.
    10030    2    1    2    0    0  0.00000000000E+00  0.00000000000E+00 -0.42996857131E+03  0.17575255063E+04  0.17041194011E+04 0.  0.
        3    1    3    3  502    0  0.47504676282E+03 -0.29755043775E+03 -0.87681177876E+03  0.10406750672E+04  0.10100000352E+00 0. -1.
       -3    1    3    3    0  502 -0.47504676282E+03  0.29755043775E+03  0.44684320744E+03  0.71685043915E+03  0.10100000352E+00 0.  1.
</event>
<event>
 5   0  0.1255362E-04  0.1693924E+04  0.7818609E-02  0.8764837E-01
        2   -1    0    0  501    0  0.00000000000E+00  0.00000000000E+00  0.86781710945E+03  0.86781710946E+03  0.25500000920E-02 0. -1.
       -2   -1    0    0    0  501  0.00000000000E+00  0.00000000000E+00 -0.82660795372E+03  0.82660795373E+03  0.25500000920E-02 0.  1.
    10030    2    1    2    0    0  0.00000000000E+00  0.00000000000E+00  0.41209155733E+02  0.16944250632E+04  0.16939238768E+04 0.  0.
        1    1    3    3  502    0 -0.25566542362E+03  0.58422483352E+03  0.57813925819E+03  0.86077201791E+03  0.50400001928E-02 0. -1.
       -1    1    3    3    0  502  0.25566542362E+03 -0.58422483352E+03 -0.53693010246E+03  0.83365304527E+03  0.50400001928E-02 0.  1.
</event>
<event>
 5   0  0.6601906E-05  0.1697199E+04  0.7818609E-02  0.8762963E-01
        1   -1    0    0  501    0  0.00000000000E+00  0.00000000000E+00  0.90393523608E+03  0.90393523609E+03  0.50400001928E-02 0.  1.
       -1   -1    0    0    0  501  0.00000000000E+00  0.00000000000E+00 -0.79665166758E+03  0.79665166760E+03  0.50400001928E-02 0. -1.
    10030    2    1    2    0    0  0.00000000000E+00  0.00000000000E+00  0.10728356849E+03  0.17005869037E+04  0.16971994735E+04 0.  0.
        1    1    3    3  502    0 -0.68256026172E+03  0.87798683634E+02  0.55114499893E+03  0.88167904002E+03  0.50400001928E-02 0.  1.
       -1    1    3    3    0  502  0.68256026172E+03 -0.87798683634E+02 -0.44386143044E+03  0.81890786367E+03  0.50400001928E-02 0. -1.
</event>
<event>
 5   0  0.1333546E-04  0.1678252E+04  0.7818609E-02  0.8773866E-01
       -2   -1    0    0    0  501  0.00000000000E+00  0.00000000000E+00  0.51283068965E+03  0.51283068966E+03  0.25500000920E-02 0.  1.
        2   -1    0    0  501    0  0.00000000000E+00  0.00000000000E+00 -0.13730308190E+04  0.13730308190E+04  0.25500000920E-02 0. -1.
    10030    2    1    2    0    0  0.00000000000E+00  0.00000000000E+00 -0.86020012938E+03  0.18858615087E+04  0.16782518784E+04 0.  0.
        5    1    3    3  502    0 -0.38119292944E+03  0.15267680461E+03  0.39219776932E+03  0.56785511918E+03  0.46999998093E+01 0.  1.
       -5    1    3    3    0  502  0.38119292944E+03 -0.15267680461E+03 -0.12523978987E+04  0.13180063895E+04  0.46999998093E+01 0. -1.
</event>
<event>
 5   0  0.6539134E-05  0.1691521E+04  0.7818609E-02  0.8766215E-01
       -1   -1    0    0    0  501  0.00000000000E+00  0.00000000000E+00  0.40457522293E+03  0.40457522296E+03  0.50400001928E-02 0.  1.
        1   -1    0    0  501    0  0.00000000000E+00  0.00000000000E+00 -0.17680531302E+04  0.17680531302E+04  0.50400001928E-02 0. -1.
    10030    2    1    2    0    0  0.00000000000E+00  0.00000000000E+00 -0.13634779073E+04  0.21726283532E+04  0.16915206051E+04 0.  0.
        2    1    3    3  502    0 -0.52682496356E+03 -0.61680055701E+03 -0.37421943823E+03  0.89332393750E+03  0.25500000920E-02 0.  1.
       -2    1    3    3    0  502  0.52682496356E+03  0.61680055701E+03 -0.98925846905E+03  0.12793044157E+04  0.25500000920E-02 0. -1.
</event>
<event>
 5   0  0.1393870E-04  0.1700927E+04  0.7818609E-02  0.8760836E-01
       -2   -1    0    0    0  501  0.00000000000E+00  0.00000000000E+00  0.67665291345E+03  0.67665291345E+03  0.25500000920E-02 0.  1.
        2   -1    0    0  501    0  0.00000000000E+00  0.00000000000E+00 -0.10689209235E+04  0.10689209235E+04  0.25500000920E-02 0. -1.
    10030    2    1    2    0    0  0.00000000000E+00  0.00000000000E+00 -0.39226801005E+03  0.17455738370E+04  0.17009273437E+04 0.  0.
        3    1    3    3  502    0 -0.38369191033E+03 -0.46855674933E+03 -0.80890269251E+03  0.10104892308E+04  0.10100000352E+00 0. -1.
       -3    1    3    3    0  502  0.38369191033E+03  0.46855674933E+03  0.41663468246E+03  0.73508460617E+03  0.10100000352E+00 0.  1.
</event>
<event>
 5   0  0.1269175E-04  0.1699510E+04  0.7818609E-02  0.8761644E-01
        2   -1    0    0  501    0  0.00000000000E+00  0.00000000000E+00  0.12472447784E+04  0.12472447784E+04  0.25500000920E-02 0.  1.
       -2   -1    0    0    0  501  0.00000000000E+00  0.00000000000E+00 -0.57894310391E+03  0.57894310392E+03  0.25500000920E-02 0. -1.
    10030    2    1    2    0    0  0.00000000000E+00  0.00000000000E+00  0.66830167453E+03  0.18261878824E+04  0.16995102393E+04 0.  0.
        2    1    3    3  502    0  0.30206851378E+03  0.71926933839E+03  0.69614407696E+03  0.10455669964E+04  0.25500000920E-02 0.  1.
       -2    1    3    3    0  502 -0.30206851378E+03 -0.71926933839E+03 -0.27842402428E+02  0.78062088592E+03  0.25500000920E-02 0. -1.
</event>
<event>
 5   0  0.6539134E-05  0.1644089E+04  0.7818609E-02  0.8793911E-01
       -1   -1    0    0    0  501  0.00000000000E+00  0.00000000000E+00  0.50169495608E+03  0.50169495611E+03  0.50400001928E-02 0.  1.
        1   -1    0    0  501    0  0.00000000000E+00  0.00000000000E+00 -0.13469476811E+04  0.13469476811E+04  0.50400001928E-02 0. -1.
    10030    2    1    2    0    0  0.00000000000E+00  0.00000000000E+00 -0.84525272499E+03  0.18486426372E+04  0.16440886323E+04 0.  0.
        2    1    3    3  502    0  0.33776634362E+03 -0.14664704201E+03  0.40377518160E+03  0.54646670081E+03  0.25500000920E-02 0.  1.
       -2    1    3    3    0  502 -0.33776634362E+03  0.14664704201E+03 -0.12490279066E+04  0.13021759364E+04  0.25500000920E-02 0. -1.
</event>
<event>
 5   0  0.4720875E-05  0.1704260E+04  0.7818609E-02  0.8758939E-01
       -4   -1    0    0    0  501  0.00000000000E+00  0.00000000000E+00  0.83949453726E+03  0.83949549790E+03  0.12699999809E+01 0.  1.
        4   -1    0    0  501    0  0.00000000000E+00  0.00000000000E+00 -0.86495330557E+03  0.86495423793E+03  0.12699999809E+01 0. -1.
    10030    2    1    2    0    0  0.00000000000E+00  0.00000000000E+00 -0.25458768308E+02  0.17044497358E+04  0.17042595909E+04 0.  0.
        2    1    3    3  502    0 -0.32570630426E+03 -0.13895626680E+03 -0.78788472524E+03  0.86380309156E+03  0.25500000920E-02 0. -1.
       -2    1    3    3    0  502  0.32570630426E+03  0.13895626680E+03  0.76242595693E+03  0.84064664427E+03  0.25500000920E-02 0.  1.
</event>
<event>
 5   0  0.1333546E-04  0.1704202E+04  0.7818609E-02  0.8758972E-01
        2   -1    0    0  501    0  0.00000000000E+00  0.00000000000E+00  0.47309288196E+03  0.47309288196E+03  0.25500000920E-02 0. -1.
       -2   -1    0    0    0  501  0.00000000000E+00  0.00000000000E+00 -0.15347429149E+04  0.15347429149E+04  0.25500000920E-02 0.  1.
    10030    2    1    2    0    0  0.00000000000E+00  0.00000000000E+00 -0.10616500329E+04  0.20078357969E+04  0.17042018057E+04 0.  0.
        5    1    3    3  502    0 -0.47017725523E+02 -0.52550017287E+03  0.25748529517E+03  0.58709612963E+03  0.46999998093E+01 0. -1.
       -5    1    3    3    0  502  0.47017725523E+02  0.52550017287E+03 -0.13191353281E+04  0.14207396672E+04  0.46999998093E+01 0.  1.
</event>
<event>
 5   0  0.1393870E-04  0.1698808E+04  0.7818609E-02  0.8762045E-01
        2   -1    0    0  501    0  0.00000000000E+00  0.00000000000E+00  0.16576071713E+04  0.16576071713E+04  0.25500000920E-02 0. -1.
       -2   -1    0    0    0  501  0.00000000000E+00  0.00000000000E+00 -0.43525800564E+03  0.43525800565E+03  0.25500000920E-02 0.  1.
    10030    2    1    2    0    0  0.00000000000E+00  0.00000000000E+00  0.12223491657E+04  0.20928651770E+04  0.16988075719E+04 0.  0.
        3    1    3    3  502    0  0.46020677090E+03  0.69126812968E+03  0.83101973206E+03  0.11748343306E+04  0.10100000352E+00 0. -1.
       -3    1    3    3    0  502 -0.46020677090E+03 -0.69126812968E+03  0.39132943365E+03  0.91803084639E+03  0.10100000352E+00 0.  1.
</event>
<event>
 5   0  0.1255362E-04  0.1698014E+04  0.7818609E-02  0.8762498E-01
       -2   -1    0    0    0  501  0.00000000000E+00  0.00000000000E+00  0.47733096259E+03  0.47733096260E+03  0.25500000920E-02 0. -1.
        2   -1    0    0  501    0  0.00000000000E+00  0.00000000000E+00 -0.15100912363E+04  0.15100912363E+04  0.25500000920E-02 0.  1.
    10030    2    1    2    0    0  0.00000000000E+00  0.00000000000E+00 -0.10327602737E+04  0.19874221989E+04  0.16980144916E+04 0.  0.
        1    1    3    3  502    0  0.31761949037E+03  0.72211753338E+03 -0.88367689805E+03  0.11845761828E+04  0.50400001928E-02 0. -1.
       -1    1    3    3    0  502 -0.31761949037E+03 -0.72211753338E+03 -0.14908337568E+03  0.80284601612E+03  0.50400001928E-02 0.  1.
</event>
<event>
 5   0  0.6834837E-05  0.1709891E+04  0.7818609E-02  0.8755743E-01
        1   -1    0    0  501    0  0.00000000000E+00  0.00000000000E+00  0.73989745346E+03  0.73989745347E+03  0.50400001928E-02 0. -1.
       -1   -1    0    0    0  501  0.00000000000E+00  0.00000000000E+00 -0.98788291861E+03  0.98788291863E+03  0.50400001928E-02 0.  1.
    10030    2    1    2    0    0  0.00000000000E+00  0.00000000000E+00 -0.24798546516E+03  0.17277803721E+04  0.17098912899E+04 0.  0.
        5    1    3    3  502    0  0.71036888690E+03 -0.13091463124E+03 -0.58610366132E+03  0.93021620495E+03  0.46999998093E+01 0.  1.
       -5    1    3    3    0  502 -0.71036888690E+03  0.13091463124E+03  0.33811819616E+03  0.79756416715E+03  0.46999998093E+01 0. -1.
</event>
<event>
 5   0  0.6601906E-05  0.1699173E+04  0.7818609E-02  0.8761836E-01
        1   -1    0    0  501    0  0.00000000000E+00  0.00000000000E+00  0.17747528943E+04  0.17747528943E+04  0.50400001928E-02 0.  1.
       -1   -1    0    0    0  501  0.00000000000E+00  0.00000000000E+00 -0.40670271406E+03  0.40670271409E+03  0.50400001928E-02 0. -1.
    10030    2    1    2    0    0  0.00000000000E+00  0.00000000000E+00  0.13680501802E+04  0.21814556084E+04  0.16991725268E+04 0.  0.
        1    1    3    3  502    0  0.44681747161E+03  0.66548727903E+03  0.32254508553E+03  0.86403385566E+03  0.50400001928E-02 0.  1.
       -1    1    3    3    0  502 -0.44681747161E+03 -0.66548727903E+03  0.10455050947E+04  0.13174217527E+04  0.50400001928E-02 0. -1.
</event>
<event>
 5   0  0.1269175E-04  0.1657194E+04  0.7818609E-02  0.8786162E-01
        2   -1    0    0  501    0  0.00000000000E+00  0.00000000000E+00  0.14761791449E+04  0.14761791449E+04  0.25500000920E-02 0.  1.
       -2   -1    0    0    0  501  0.00000000000E+00  0.00000000000E+00 -0.46510143478E+03  0.46510143478E+03  0.25500000920E-02 0. -1.
    10030    2    1    2    0    0  0.00000000000E+00  0.00000000000E+00  0.10110777101E+04  0.19412805796E+04  0.16571940602E+04 0.  0.
        2    1    3    3  502    0 -0.65965173303E+02 -0.41638408464E+03 -0.33007973610E+03  0.53542482406E+03  0.25500000920E-02 0. -1.
       -2    1    3    3    0  502  0.65965173303E+02  0.41638408464E+03  0.13411574462E+04  0.14058557556E+04  0.25500000920E-02 0.  1.
</event>
<event>
 5   0  0.6539134E-05  0.1700696E+04  0.7818609E-02  0.8760968E-01
       -1   -1    0    0    0  501  0.00000000000E+00  0.00000000000E+00  0.73482648735E+03  0.73482648737E+03  0.50400001928E-02 0. -1.
        1   -1    0    0  501    0  0.00000000000E+00  0.00000000000E+00 -0.98403000248E+03  0.98403000249E+03  0.50400001928E-02 0.  1.
    10030    2    1    2    0    0  0.00000000000E+00  0.00000000000E+00 -0.24920351513E+03  0.17188564899E+04  0.17006955168E+04 0.  0.
        2    1    3    3  502    0  0.45608006028E+03 -0.55867103415E+03 -0.57993343926E+03  0.92544321261E+03  0.25500000920E-02 0.  1.
       -2    1    3    3    0  502 -0.45608006028E+03  0.55867103415E+03  0.33072992414E+03  0.79341327725E+03  0.25500000920E-02 0. -1.
</event>
<event>
 5   0  0.1255362E-04  0.1703839E+04  0.7818609E-02  0.8759178E-01
       -2   -1    0    0    0  501  0.00000000000E+00  0.00000000000E+00  0.97804277601E+03  0.97804277601E+03  0.25500000920E-02 0. -1.
        2   -1    0    0  501    0  0.00000000000E+00  0.00000000000E+00 -0.74206055535E+03  0.74206055536E+03  0.25500000920E-02 0.  1.
    10030    2    1    2    0    0  0.00000000000E+00  0.00000000000E+00  0.23598222065E+03  0.17201033314E+04  0.17038391538E+04 0.  0.
        1    1    3    3  502    0  0.53391590586E+03  0.53350284335E+03  0.51682613732E+03  0.91476813163E+03  0.50400001928E-02 0. -1.
       -1    1    3    3    0  502 -0.53391590586E+03 -0.53350284335E+03 -0.28084391667E+03  0.80533519974E+03  0.50400001928E-02 0.  1.
</event>
<event>
 5   0  0.1333546E-04  0.1700854E+04  0.7818609E-02  0.8760877E-01
       -2   -1    0    0    0  501  0.00000000000E+00  0.00000000000E+00  0.11842452903E+04  0.11842452904E+04  0.25500000920E-02 0. -1.
        2   -1    0    0  501    0  0.00000000000E+00  0.00000000000E+00 -0.61070659061E+03  0.61070659062E+03  0.25500000920E-02 0.  1.
    10030    2    1    2    0    0  0.00000000000E+00  0.00000000000E+00  0.57353869974E+03  0.17949518810E+04  0.17008543779E+04 0.  0.
        5    1    3    3  502    0 -0.29992927723E+03  0.78654289498E+03  0.41427156543E+03  0.93821656184E+03  0.46999998093E+01 0.  1.
       -5    1    3    3    0  502  0.29992927723E+03 -0.78654289498E+03  0.15926713430E+03  0.85673531913E+03  0.46999998093E+01 0. -1.
</event>
<event>
 5   0  0.6834837E-05  0.1703324E+04  0.7818609E-02  0.8759471E-01
       -1   -1    0    0    0  501  0.00000000000E+00  0.00000000000E+00  0.15100347266E+04  0.15100347266E+04  0.50400001928E-02 0. -1.
        1   -1    0    0  501    0  0.00000000000E+00  0.00000000000E+00 -0.48033895981E+03  0.48033895984E+03  0.50400001928E-02 0.  1.
    10030    2    1    2    0    0  0.00000000000E+00  0.00000000000E+00  0.10296957668E+04  0.19903736865E+04  0.17033244082E+04 0.  0.
        5    1    3    3  502    0  0.31510831888E+03  0.20555406210E+03 -0.37795313461E+03  0.53330702886E+03  0.46999998093E+01 0.  1.
       -5    1    3    3    0  502 -0.31510831888E+03 -0.20555406210E+03  0.14076489014E+04  0.14570666576E+04  0.46999998093E+01 0. -1.
</event>
<event>
 5   0  0.6834837E-05  0.1697239E+04  0.7818609E-02  0.8762940E-01
       -1   -1    0    0    0  501  0.00000000000E+00  0.00000000000E+00  0.90179108005E+03  0.90179108007E+03  0.50400001928E-02 0. -1.
        1   -1    0    0  501    0  0.00000000000E+00  0.00000000000E+00 -0.79858347066E+03  0.79858347068E+03  0.50400001928E-02 0.  1.
    10030    2    1    2    0    0  0.00000000000E+00  0.00000000000E+00  0.10320760939E+03  0.17003745507E+04  0.16972394652E+04 0.  0.
        5    1    3    3  502    0  0.59966442963E+03 -0.28384625387E+03 -0.47849287004E+03  0.81801200521E+03  0.46999998093E+01 0.  1.
       -5    1    3    3    0  502 -0.59966442963E+03  0.28384625387E+03  0.58170047943E+03  0.88236254553E+03  0.46999998093E+01 0. -1.
</event>
<event>
 5   0  0.1255362E-04  0.1666290E+04  0.7818609E-02  0.8780828E-01
       -2   -1    0    0    0  501  0.00000000000E+00  0.00000000000E+00  0.76454400360E+03  0.76454400360E+03  0.25500000920E-02 0. -1.
        2   -1    0    0  501    0  0.00000000000E+00  0.00000000000E+00 -0.90790102661E+03  0.90790102661E+03  0.25500000920E-02 0.  1.
    10030    2    1    2    0    0  0.00000000000E+00  0.00000000000E+00 -0.14335702301E+03  0.16724450302E+04  0.16662896336E+04 0.  0.
        1    1    3    3  502    0  0.34739113546E+02 -0.77975824098E+03  0.22077487247E+03  0.81115427924E+03  0.50400001928E-02 0. -1.
       -1    1    3    3    0  502 -0.34739113546E+02  0.77975824098E+03 -0.36413189548E+03  0.86129075098E+03  0.50400001928E-02 0.  1.
</event>
<event>
 5   0  0.1285639E-04  0.1702023E+04  0.7818609E-02  0.8760211E-01
       -2   -1    0    0    0  501  0.00000000000E+00  0.00000000000E+00  0.51371761159E+03  0.51371761160E+03  0.25500000920E-02 0.  1.
        2   -1    0    0  501    0  0.00000000000E+00  0.00000000000E+00 -0.14097642062E+04  0.14097642062E+04  0.25500000920E-02 0. -1.
    10030    2    1    2    0    0  0.00000000000E+00  0.00000000000E+00 -0.89604659465E+03  0.19234818178E+04  0.17020231502E+04 0.  0.
        4    1    3    3  502    0 -0.60657051268E+03  0.19744818867E+03 -0.10846156718E+04  0.12582950141E+04  0.12699999809E+01 0. -1.
       -4    1    3    3    0  502  0.60657051268E+03 -0.19744818867E+03  0.18856907720E+03  0.66518680371E+03  0.12699999809E+01 0.  1.
</event>
<event>
 5   0  0.6539134E-05  0.1706611E+04  0.7818609E-02  0.8757603E-01
       -1   -1    0    0    0  501  0.00000000000E+00  0.00000000000E+00  0.86099884966E+03  0.86099884968E+03  0.50400001928E-02 0.  1.
        1   -1    0    0  501    0  0.00000000000E+00  0.00000000000E+00 -0.84568067911E+03  0.84568067913E+03  0.50400001928E-02 0. -1.
    10030    2    1    2    0    0  0.00000000000E+00  0.00000000000E+00  0.15318170552E+02  0.17066795288E+04  0.17066107839E+04 0.  0.
        2    1    3    3  502    0 -0.38991896076E+03 -0.72860680312E+03  0.22033034798E+03  0.85524857893E+03  0.25500000920E-02 0.  1.
       -2    1    3    3    0  502  0.38991896076E+03  0.72860680312E+03 -0.20501217743E+03  0.85143094988E+03  0.25500000920E-02 0. -1.
</event>
<event>
 5   0  0.6564887E-05  0.1702854E+04  0.7818609E-02  0.8759738E-01
        1   -1    0    0  501    0  0.00000000000E+00  0.00000000000E+00  0.68648970179E+03  0.68648970181E+03  0.50400001928E-02 0.  1.
       -1   -1    0    0    0  501  0.00000000000E+00  0.00000000000E+00 -0.10559922069E+04  0.10559922069E+04  0.50400001928E-02 0. -1.
    10030    2    1    2    0    0  0.00000000000E+00  0.00000000000E+00 -0.36950250509E+03  0.17424819087E+04  0.17028538108E+04 0.  0.
        4    1    3    3  502    0  0.32900635431E+03  0.49756371635E+03  0.43693261804E+03  0.73940960138E+03  0.12699999809E+01 0.  1.
       -4    1    3    3    0  502 -0.32900635431E+03 -0.49756371635E+03 -0.80643512313E+03  0.10030723073E+04  0.12699999809E+01 0. -1.
</event>
<event>
 5   0  0.1333546E-04  0.1698654E+04  0.7818609E-02  0.8762133E-01
        2   -1    0    0  501    0  0.00000000000E+00  0.00000000000E+00  0.22500100504E+04  0.22500100504E+04  0.25500000920E-02 0. -1.
       -2   -1    0    0    0  501  0.00000000000E+00  0.00000000000E+00 -0.32060128555E+03  0.32060128556E+03  0.25500000920E-02 0.  1.
    10030    2    1    2    0    0  0.00000000000E+00  0.00000000000E+00  0.19294087648E+04  0.25706113360E+04  0.16986537195E+04 0.  0.
        5    1    3    3  502    0  0.56073425169E+03 -0.91960579283E+02  0.94459851012E+01  0.56832294146E+03  0.46999998093E+01 0.  1.
       -5    1    3    3    0  502 -0.56073425169E+03  0.91960579283E+02  0.19199627797E+04  0.20022883945E+04  0.46999998093E+01 0. -1.
</event>
<event>
 5   0  0.6601906E-05  0.1702447E+04  0.7818609E-02  0.8759970E-01
       -1   -1    0    0    0  501  0.00000000000E+00  0.00000000000E+00  0.11568902823E+04  0.11568902823E+04  0.50400001928E-02 0. -1.
        1   -1    0    0  501    0  0.00000000000E+00  0.00000000000E+00 -0.62631821858E+03  0.62631821860E+03  0.50400001928E-02 0.  1.
    10030    2    1    2    0    0  0.00000000000E+00  0.00000000000E+00  0.53057206367E+03  0.17832085009E+04  0.17024470161E+04 0.  0.
        1    1    3    3  502    0 -0.43337037184E+03  0.22360954437E+03  0.99607264135E+03  0.11090409435E+04  0.50400001928E-02 0. -1.
       -1    1    3    3    0  502  0.43337037184E+03 -0.22360954437E+03 -0.46550057768E+03  0.67416755734E+03  0.50400001928E-02 0.  1.
</event>
<event>
 5   0  0.1333546E-04  0.1681400E+04  0.7818609E-02  0.8772044E-01
        2   -1    0    0  501    0  0.00000000000E+00  0.00000000000E+00  0.15789504256E+04  0.15789504256E+04  0.25500000920E-02 0. -1.
       -2   -1    0    0    0  501  0.00000000000E+00  0.00000000000E+00 -0.44762412671E+03  0.44762412672E+03  0.25500000920E-02 0.  1.
    10030    2    1    2    0    0  0.00000000000E+00  0.00000000000E+00  0.11313262989E+04  0.20265745523E+04  0.16813997804E+04 0.  0.
        5    1    3    3  502    0 -0.17215414277E+03 -0.64390937206E+03  0.11831880929E+04  0.13580178502E+04  0.46999998093E+01 0.  1.
       -5    1    3    3    0  502  0.17215414277E+03  0.64390937206E+03 -0.51861793985E+02  0.66855670214E+03  0.46999998093E+01 0. -1.
</event>
<event>
 5   0  0.6539134E-05  0.1699964E+04  0.7818609E-02  0.8761385E-01
       -1   -1    0    0    0  501  0.00000000000E+00  0.00000000000E+00  0.40457580801E+03  0.40457580804E+03  0.50400001928E-02 0.  1.
        1   -1    0    0  501    0  0.00000000000E+00  0.00000000000E+00 -0.17857460016E+04  0.17857460016E+04  0.50400001928E-02 0. -1.
    10030    2    1    2    0    0  0.00000000000E+00  0.00000000000E+00 -0.13811701936E+04  0.21903218097E+04  0.16999642720E+04 0.  0.
        2    1    3    3  502    0  0.50118191026E+03 -0.15980951597E+03  0.16964070840E+03  0.55272086854E+03  0.25500000920E-02 0.  1.
       -2    1    3    3    0  502 -0.50118191026E+03  0.15980951597E+03 -0.15508109020E+04  0.16376009411E+04  0.25500000920E-02 0. -1.
</event>
<event>
 5   0  0.1255362E-04  0.1746022E+04  0.7818609E-02  0.8735543E-01
       -2   -1    0    0    0  501  0.00000000000E+00  0.00000000000E+00  0.71567565682E+03  0.71567565683E+03  0.25500000920E-02 0. -1.
        2   -1    0    0  501    0  0.00000000000E+00  0.00000000000E+00 -0.10649356652E+04  0.10649356652E+04  0.25500000920E-02 0.  1.
    10030    2    1    2    0    0  0.00000000000E+00  0.00000000000E+00 -0.34926000842E+03  0.17806113221E+04  0.17460223729E+04 0.  0.
        1    1    3    3  502    0 -0.47279783460E+02  0.47224131878E+03  0.57262107368E+03  0.74373525877E+03  0.50400001928E-02 0. -1.
       -1    1    3    3    0  502  0.47279783460E+02 -0.47224131878E+03 -0.92188108210E+03  0.10368760633E+04  0.50400001928E-02 0.  1.
</event>
<event>
 5   0  0.1269175E-04  0.1698870E+04  0.7818609E-02  0.8762009E-01
        2   -1    0    0  501    0  0.00000000000E+00  0.00000000000E+00  0.20102097268E+04  0.20102097268E+04  0.25500000920E-02 0. -1.
       -2   -1    0    0    0  501  0.00000000000E+00  0.00000000000E+00 -0.35893778166E+03  0.35893778167E+03  0.25500000920E-02 0.  1.
    10030    2    1    2    0    0  0.00000000000E+00  0.00000000000E+00  0.16512719451E+04  0.23691475084E+04  0.16988704718E+04 0.  0.
        2    1    3    3  502    0 -0.76475249783E+03 -0.24598300165E+03  0.12105555407E+04  0.14528588153E+04  0.25500000920E-02 0. -1.
       -2    1    3    3    0  502  0.76475249783E+03  0.24598300165E+03  0.44071640437E+03  0.91628869312E+03  0.25500000920E-02 0.  1.
</event>
<event>
 5   0  0.4720875E-05  0.1690654E+04  0.7818609E-02  0.8766713E-01
       -3   -1    0    0    0  501  0.00000000000E+00  0.00000000000E+00  0.96744264888E+03  0.96744265415E+03  0.10100000352E+00 0.  1.
        3   -1    0    0  501    0  0.00000000000E+00  0.00000000000E+00 -0.73862560775E+03  0.73862561465E+03  0.10100000352E+00 0. -1.
    10030    2    1    2    0    0  0.00000000000E+00  0.00000000000E+00  0.22881704113E+03  0.17060682688E+04  0.16906542223E+04 0.  0.
        3    1    3    3  502    0 -0.16417136797E+03 -0.55855906040E+03 -0.50407204230E+03  0.77008382404E+03  0.10100000352E+00 0. -1.
       -3    1    3    3    0  502  0.16417136797E+03  0.55855906040E+03  0.73288908344E+03  0.93598444476E+03  0.10100000352E+00 0.  1.
</event>
<event>
 5   0  0.6564887E-05  0.1693740E+04  0.7818609E-02  0.8764943E-01
        1   -1    0    0  501    0  0.00000000000E+00  0.00000000000E+00  0.14498853507E+04  0.14498853507E+04  0.50400001928E-02 0.  1.
       -1   -1    0    0    0  501  0.00000000000E+00  0.00000000000E+00 -0.49465210082E+03  0.49465210085E+03  0.50400001928E-02 0. -1.
    10030    2    1    2    0    0  0.00000000000E+00  0.00000000000E+00  0.95523324991E+03  0.19445374516E+04  0.16937400447E+04 0.  0.
        4    1    3    3  502    0 -0.19550774226E+01 -0.77704801207E+03  0.91038412295E+02  0.78236630858E+03  0.12699999809E+01 0. -1.
       -4    1    3    3    0  502  0.19550774226E+01  0.77704801207E+03  0.86419483761E+03  0.11621711430E+04  0.12699999809E+01 0.  1.
</event>
<event>
 5   0  0.1285639E-04  0.1689904E+04  0.7818609E-02  0.8767143E-01
       -2   -1    0    0    0  501  0.00000000000E+00  0.00000000000E+00  0.12440953366E+04  0.12440953366E+04  0.25500000920E-02 0.  1.
        2   -1    0    0  501    0  0.00000000000E+00  0.00000000000E+00 -0.57386598014E+03  0.57386598014E+03  0.25500000920E-02 0. -1.
    10030    2    1    2    0    0  0.00000000000E+00  0.00000000000E+00  0.67022935643E+03  0.18179613167E+04  0.16899041271E+04 0.  0.
        4    1    3    3  502    0 -0.73804829462E+03 -0.31866144325E+03  0.55242913170E+02  0.80580009492E+03  0.12699999809E+01 0. -1.
       -4    1    3    3    0  502  0.73804829462E+03  0.31866144325E+03  0.61498644326E+03  0.10121612218E+04  0.12699999809E+01 0.  1.
</event>
<event>
 5   0  0.1333546E-04  0.1698781E+04  0.7818609E-02  0.8762060E-01
        2   -1    0    0  501    0  0.00000000000E+00  0.00000000000E+00  0.95553021471E+03  0.95553021471E+03  0.25500000920E-02 0.  1.
       -2   -1    0    0    0  501  0.00000000000E+00  0.00000000000E+00 -0.75504050727E+03  0.75504050727E+03  0.25500000920E-02 0. -1.
    10030    2    1    2    0    0  0.00000000000E+00  0.00000000000E+00  0.20048970744E+03  0.17105707220E+04  0.16987807605E+04 0.  0.
        5    1    3    3  502    0  0.64637581485E+03 -0.54832612439E+03  0.45288647807E+02  0.84884414608E+03  0.46999998093E+01 0. -1.
       -5    1    3    3    0  502 -0.64637581485E+03  0.54832612439E+03  0.15520105963E+03  0.86172657590E+03  0.46999998093E+01 0.  1.
</event>
<event>
 5   0  0.6601906E-05  0.1689209E+04  0.7818609E-02  0.8767543E-01
       -1   -1    0    0    0  501  0.00000000000E+00  0.00000000000E+00  0.55526962762E+03  0.55526962765E+03  0.50400001928E-02 0. -1.
        1   -1    0    0  501    0  0.00000000000E+00  0.00000000000E+00 -0.12847039204E+04  0.12847039204E+04  0.50400001928E-02 0.  1.
    10030    2    1    2    0    0  0.00000000000E+00  0.00000000000E+00 -0.72943429280E+03  0.18399735481E+04  0.16892093624E+04 0.  0.
        1    1    3    3  502    0  0.62974925152E+03  0.34597933683E+03  0.11883100926E+03  0.72829021007E+03  0.50400001928E-02 0. -1.
       -1    1    3    3    0  502 -0.62974925152E+03 -0.34597933683E+03 -0.84826530207E+03  0.11116833380E+04  0.50400001928E-02 0.  1.
</event>
<event>
 5   0  0.1285639E-04  0.1698134E+04  0.7818609E-02  0.8762429E-01
        2   -1    0    0  501    0  0.00000000000E+00  0.00000000000E+00  0.50340861416E+03  0.50340861416E+03  0.25500000920E-02 0. -1.
       -2   -1    0    0    0  501  0.00000000000E+00  0.00000000000E+00 -0.14320674731E+04  0.14320674731E+04  0.25500000920E-02 0.  1.
    10030    2    1    2    0    0  0.00000000000E+00  0.00000000000E+00 -0.92865885894E+03  0.19354760873E+04  0.16981343905E+04 0.  0.
        4    1    3    3  502    0 -0.55794810402E+03 -0.24278089566E+03 -0.11392642951E+04  0.12915778711E+04  0.12699999809E+01 0.  1.
       -4    1    3    3    0  502  0.55794810402E+03  0.24278089566E+03  0.21060543621E+03  0.64389821613E+03  0.12699999809E+01 0. -1.
</event>
<event>
 5   0  0.6615842E-05  0.1694052E+04  0.7818609E-02  0.8764764E-01
        1   -1    0    0  501    0  0.00000000000E+00  0.00000000000E+00  0.67022773155E+03  0.67022773157E+03  0.50400001928E-02 0.  1.
       -1   -1    0    0    0  501  0.00000000000E+00  0.00000000000E+00 -0.10704621060E+04  0.10704621060E+04  0.50400001928E-02 0. -1.
    10030    2    1    2    0    0  0.00000000000E+00  0.00000000000E+00 -0.40023437441E+03  0.17406898375E+04  0.16940524065E+04 0.  0.
        3    1    3    3  502    0 -0.26044914527E+03 -0.80535225313E+03 -0.23305221039E+03  0.87791762248E+03  0.10100000352E+00 0.  1.
       -3    1    3    3    0  502  0.26044914527E+03  0.80535225313E+03 -0.16718216402E+03  0.86277221505E+03  0.10100000352E+00 0. -1.
</event>
<event>
 5   0  0.6539134E-05  0.1699623E+04  0.7818609E-02  0.8761579E-01
       -1   -1    0    0    0  501  0.00000000000E+00  0.00000000000E+00  0.32072141704E+03  0.32072141708E+03  0.50400001928E-02 0.  1.
        1   -1    0    0  501    0  0.00000000000E+00  0.00000000000E+00 -0.22517352454E+04  0.22517352454E+04  0.50400001928E-02 0. -1.
    10030    2    1    2    0    0  0.00000000000E+00  0.00000000000E+00 -0.19310138283E+04  0.25724566625E+04  0.16996231568E+04 0.  0.
        2    1    3    3  502    0  0.14445946176E+03 -0.52214601693E+03 -0.19564743052E+04  0.20300977085E+04  0.25500000920E-02 0. -1.
       -2    1    3    3    0  502 -0.14445946176E+03  0.52214601693E+03  0.25460476844E+02  0.54235895399E+03  0.25500000920E-02 0.  1.
</event>
<event>
 5   0  0.6539134E-05  0.1689109E+04  0.7818609E-02  0.8767600E-01
       -1   -1    0    0    0  501  0.00000000000E+00  0.00000000000E+00  0.49689987210E+03  0.49689987213E+03  0.50400001928E-02 0. -1.
        1   -1    0    0  501    0  0.00000000000E+00  0.00000000000E+00 -0.14354454075E+04  0.14354454075E+04  0.50400001928E-02 0.  1.
    10030    2    1    2    0    0  0.00000000000E+00  0.00000000000E+00 -0.93854553535E+03  0.19323452796E+04  0.16891093978E+04 0.  0.
        2    1    3    3  502    0  0.30025923682E+03 -0.78736929302E+03 -0.40489656220E+03  0.93490493579E+03  0.25500000920E-02 0.  1.
       -2    1    3    3    0  502 -0.30025923682E+03  0.78736929302E+03 -0.53364897315E+03  0.99744034380E+03  0.25500000920E-02 0. -1.
</event>
<event>
 5   0  0.6601906E-05  0.1710429E+04  0.7818609E-02  0.8755439E-01
       -1   -1    0    0    0  501  0.00000000000E+00  0.00000000000E+00  0.46034572217E+03  0.46034572220E+03  0.50400001928E-02 0. -1.
        1   -1    0    0  501    0  0.00000000000E+00  0.00000000000E+00 -0.15887882052E+04  0.15887882052E+04  0.50400001928E-02 0.  1.
    10030    2    1    2    0    0  0.00000000000E+00  0.00000000000E+00 -0.11284424830E+04  0.20491339274E+04  0.17104290149E+04 0.  0.
        1    1    3    3  502    0  0.14451605476E+03  0.52501084812E+03 -0.13542543632E+04  0.14596322006E+04  0.50400001928E-02 0.  1.
       -1    1    3    3    0  502 -0.14451605476E+03 -0.52501084812E+03  0.22581188013E+03  0.58950172685E+03  0.50400001928E-02 0. -1.
</event>
<event>
 5   0  0.6834837E-05  0.1664932E+04  0.7818609E-02  0.8781622E-01
        1   -1    0    0  501    0  0.00000000000E+00  0.00000000000E+00  0.89056643273E+03  0.89056643275E+03  0.50400001928E-02 0.  1.
       -1   -1    0    0    0  501  0.00000000000E+00  0.00000000000E+00 -0.77815604791E+03  0.77815604793E+03  0.50400001928E-02 0. -1.
    10030    2    1    2    0    0  0.00000000000E+00  0.00000000000E+00  0.11241038482E+03  0.16687224807E+04  0.16649320175E+04 0.  0.
        5    1    3    3  502    0 -0.16021648978E+03  0.21049941689E+03 -0.73489414481E+03  0.78107030553E+03  0.46999998093E+01 0. -1.
       -5    1    3    3    0  502  0.16021648978E+03 -0.21049941689E+03  0.84730452963E+03  0.88765217515E+03  0.46999998093E+01 0.  1.
</event>
<event>
 5   0  0.6539134E-05  0.1698348E+04  0.7818609E-02  0.8762307E-01
       -1   -1    0    0    0  501  0.00000000000E+00  0.00000000000E+00  0.58165025208E+03  0.58165025211E+03  0.50400001928E-02 0.  1.
        1   -1    0    0  501    0  0.00000000000E+00  0.00000000000E+00 -0.12397425043E+04  0.12397425043E+04  0.50400001928E-02 0. -1.
    10030    2    1    2    0    0  0.00000000000E+00  0.00000000000E+00 -0.65809225221E+03  0.18213927564E+04  0.16983480682E+04 0.  0.
        2    1    3    3  502    0 -0.34574804255E+03 -0.57615692070E+03 -0.88589233071E+03  0.11118919587E+04  0.25500000920E-02 0. -1.
       -2    1    3    3    0  502  0.34574804255E+03  0.57615692070E+03  0.22780007850E+03  0.70950079772E+03  0.25500000920E-02 0.  1.
</event>
<event>
 5   0  0.1285639E-04  0.1693456E+04  0.7818609E-02  0.8765106E-01
        2   -1    0    0  501    0  0.00000000000E+00  0.00000000000E+00  0.56016345820E+03  0.56016345820E+03  0.25500000920E-02 0. -1.
       -2   -1    0    0    0  501  0.00000000000E+00  0.00000000000E+00 -0.12798911090E+04  0.12798911090E+04  0.25500000920E-02 0.  1.
    10030    2    1    2    0    0  0.00000000000E+00  0.00000000000E+00 -0.71972765078E+03  0.18400545672E+04  0.16934559099E+04 0.  0.
        4    1    3    3  502    0  0.37356398558E+03 -0.37943613547E+03 -0.10752057507E+04  0.11998295094E+04  0.12699999809E+01 0.  1.
       -4    1    3    3    0  502 -0.37356398558E+03  0.37943613547E+03  0.35547809995E+03  0.64022505782E+03  0.12699999809E+01 0. -1.
</event>
<event>
 5   0  0.1285639E-04  0.1696456E+04  0.7818609E-02  0.8763388E-01
        2   -1    0    0  501    0  0.00000000000E+00  0.00000000000E+00  0.52087850592E+03  0.52087850592E+03  0.25500000920E-02 0. -1.
       -2   -1    0    0    0  501  0.00000000000E+00  0.00000000000E+00 -0.13813018897E+04  0.13813018897E+04  0.25500000920E-02 0.  1.
    10030    2    1    2    0    0  0.00000000000E+00  0.00000000000E+00 -0.86042338378E+03  0.19021803956E+04  0.16964556753E+04 0.  0.
        4    1    3    3  502    0  0.56216633509E+00 -0.83675620345E+03 -0.58609444035E+03  0.10216014712E+04  0.12699999809E+01 0.  1.
       -4    1    3    3    0  502 -0.56216633509E+00  0.83675620345E+03 -0.27432894344E+03  0.88057892443E+03  0.12699999809E+01 0. -1.
</event>
<event>
 5   0  0.1255362E-04  0.1676121E+04  0.7818609E-02  0.8775102E-01
        2   -1    0    0  501    0  0.00000000000E+00  0.00000000000E+00  0.65131932344E+03  0.65131932345E+03  0.25500000920E-02 0. -1.
       -2   -1    0    0    0  501  0.00000000000E+00  0.00000000000E+00 -0.10783427911E+04  0.10783427911E+04  0.25500000920E-02 0.  1.
    10030    2    1    2    0    0  0.00000000000E+00  0.00000000000E+00 -0.42702346770E+03  0.17296621146E+04  0.16761211140E+04 0.  0.
        1    1    3    3  502    0  0.81142936905E+03 -0.68095822153E+02 -0.41806268647E+03  0.91533112686E+03  0.50400001928E-02 0.  1.
       -1    1    3    3    0  502 -0.81142936905E+03  0.68095822153E+02 -0.89607812321E+01  0.81433098773E+03  0.50400001928E-02 0. -1.
</event>
<event>
 5   0  0.6564887E-05  0.1697615E+04  0.7818609E-02  0.8762726E-01
        1   -1    0    0  501    0  0.00000000000E+00  0.00000000000E+00  0.65450710530E+03  0.65450710532E+03  0.50400001928E-02 0.  1.
       -1   -1    0    0    0  501  0.00000000000E+00  0.00000000000E+00 -0.11007887747E+04  0.11007887748E+04  0.50400001928E-02 0. -1.
    10030    2    1    2    0    0  0.00000000000E+00  0.00000000000E+00 -0.44628166945E+03  0.17552958801E+04  0.16976148851E+04 0.  0.
        4    1    3    3  502    0  0.48637654472E+03  0.55170008825E+03  0.21497458759E+03  0.76625767000E+03  0.12699999809E+01 0.  1.
       -4    1    3    3    0  502 -0.48637654472E+03 -0.55170008825E+03 -0.66125625703E+03  0.98903821008E+03  0.12699999809E+01 0. -1.
</event>
<event>
 5   0  0.6564887E-05  0.1716892E+04  0.7818609E-02  0.8751789E-01
       -1   -1    0    0    0  501  0.00000000000E+00  0.00000000000E+00  0.13600118392E+04  0.13600118392E+04  0.50400001928E-02 0.  1.
        1   -1    0    0  501    0  0.00000000000E+00  0.00000000000E+00 -0.54185504447E+03  0.54185504449E+03  0.50400001928E-02 0. -1.
    10030    2    1    2    0    0  0.00000000000E+00  0.00000000000E+00  0.81815679476E+03  0.19018668837E+04  0.17168916980E+04 0.  0.
        4    1    3    3  502    0 -0.78178308387E+03 -0.30136786472E+03  0.61608113585E+03  0.10399831532E+04  0.12699999809E+01 0.  1.
       -4    1    3    3    0  502  0.78178308387E+03  0.30136786472E+03  0.20207565891E+03  0.86188373052E+03  0.12699999809E+01 0. -1.
</event>
<event>
 5   0  0.1333546E-04  0.1700520E+04  0.7818609E-02  0.8761068E-01
       -2   -1    0    0    0  501  0.00000000000E+00  0.00000000000E+00  0.44429556022E+03  0.44429556023E+03  0.25500000920E-02 0. -1.
        2   -1    0    0  501    0  0.00000000000E+00  0.00000000000E+00 -0.16271644682E+04  0.16271644682E+04  0.25500000920E-02 0.  1.
    10030    2    1    2    0    0  0.00000000000E+00  0.00000000000E+00 -0.11828689080E+04  0.20714600285E+04  0.17005198605E+04 0.  0.
        5    1    3    3  502    0  0.13360139163E+02 -0.23905276425E+03 -0.15852365780E+04  0.16032223226E+04  0.46999998093E+01 0.  1.
       -5    1    3    3    0  502 -0.13360139163E+02  0.23905276425E+03  0.40236766995E+03  0.46823770591E+03  0.46999998093E+01 0. -1.
</event>
<event>
 5   0  0.6834837E-05  0.1694778E+04  0.7818609E-02  0.8764348E-01
        1   -1    0    0  501    0  0.00000000000E+00  0.00000000000E+00  0.93021663715E+03  0.93021663716E+03  0.50400001928E-02 0. -1.
       -1   -1    0    0    0  501  0.00000000000E+00  0.00000000000E+00 -0.77193681095E+03  0.77193681096E+03  0.50400001928E-02 0.  1.
    10030    2    1    2    0    0  0.00000000000E+00  0.00000000000E+00  0.15827982620E+03  0.17021534481E+04  0.16947784096E+04 0.  0.
        5    1    3    3  502    0 -0.36229981361E+03  0.20650965897E+03  0.82000768872E+03  0.91996852867E+03  0.46999998093E+01 0. -1.
       -5    1    3    3    0  502  0.36229981361E+03 -0.20650965897E+03 -0.66172786252E+03  0.78218491945E+03  0.46999998093E+01 0.  1.
</event>
<event>
 5   0  0.4720875E-05  0.1699087E+04  0.7818609E-02  0.8761886E-01
        3   -1    0    0  501    0  0.00000000000E+00  0.00000000000E+00  0.16051465980E+04  0.16051466012E+04  0.10100000352E+00 0.  1.
       -3   -1    0    0    0  501  0.00000000000E+00  0.00000000000E+00 -0.44963104759E+03  0.44963105893E+03  0.10100000352E+00 0. -1.
    10030    2    1    2    0    0  0.00000000000E+00  0.00000000000E+00  0.11555155504E+04  0.20547776601E+04  0.16990865326E+04 0.  0.
        2    1    3    3  502    0 -0.11007644084E+03  0.84199923455E+03  0.60845286886E+03  0.10446503853E+04  0.25500000920E-02 0.  1.
       -2    1    3    3    0  502  0.11007644084E+03 -0.84199923455E+03  0.54706268153E+03  0.10101272748E+04  0.25500000920E-02 0. -1.
</event>
<event>
 5   0  0.1269175E-04  0.1708735E+04  0.7818609E-02  0.8756398E-01
       -2   -1    0    0    0  501  0.00000000000E+00  0.00000000000E+00  0.11860606731E+04  0.11860606731E+04  0.25500000920E-02 0. -1.
        2   -1    0    0  501    0  0.00000000000E+00  0.00000000000E+00 -0.61543538960E+03  0.61543538960E+03  0.25500000920E-02 0.  1.
    10030    2    1    2    0    0  0.00000000000E+00  0.00000000000E+00  0.57062528355E+03  0.18014960627E+04  0.17087348682E+04 0.  0.
        2    1    3    3  502    0 -0.58021683062E+03 -0.62611099775E+03  0.24763520400E+03  0.88881367356E+03  0.25500000920E-02 0. -1.
       -2    1    3    3    0  502  0.58021683062E+03  0.62611099775E+03  0.32299007955E+03  0.91268238919E+03  0.25500000920E-02 0.  1.
</event>
<event>
 5   0  0.6615842E-05  0.1705777E+04  0.7818609E-02  0.8758076E-01
        1   -1    0    0  501    0  0.00000000000E+00  0.00000000000E+00  0.17009067168E+04  0.17009067168E+04  0.50400001928E-02 0. -1.
       -1   -1    0    0    0  501  0.00000000000E+00  0.00000000000E+00 -0.42766541248E+03  0.42766541251E+03  0.50400001928E-02 0.  1.
    10030    2    1    2    0    0  0.00000000000E+00  0.00000000000E+00  0.12732413043E+04  0.21285721293E+04  0.17057772101E+04 0.  0.
        3    1    3    3  502    0 -0.68490516894E+03  0.48412641081E+03  0.44352258294E+03  0.94878119915E+03  0.10100000352E+00 0.  1.
       -3    1    3    3    0  502  0.68490516894E+03 -0.48412641081E+03  0.82971872135E+03  0.11797909301E+04  0.10100000352E+00 0. -1.
</event>
<event>
 5   0  0.1393870E-04  0.1741146E+04  0.7818609E-02  0.8738239E-01
        2   -1    0    0  501    0  0.00000000000E+00  0.00000000000E+00  0.30401486710E+03  0.30401486711E+03  0.25500000920E-02 0. -1.
       -2   -1    0    0    0  501  0.00000000000E+00  0.00000000000E+00 -0.24929626298E+04  0.24929626298E+04  0.25500000920E-02 0.  1.
    10030    2    1    2    0    0  0.00000000000E+00  0.00000000000E+00 -0.21889477627E+04  0.27969774970E+04  0.17411464070E+04 0.  0.
        3    1    3    3  502    0 -0.78960941008E+02  0.64622088777E+03 -0.20229416819E+04  0.21251186613E+04  0.10100000352E+00 0.  1.
       -3    1    3    3    0  502  0.78960941008E+02 -0.64622088777E+03 -0.16600608084E+03  0.67185883567E+03  0.10100000352E+00 0. -1.
</event>
<event>
 5   0  0.1285639E-04  0.1706432E+04  0.7818609E-02  0.8757705E-01
       -2   -1    0    0    0  501  0.00000000000E+00  0.00000000000E+00  0.60977992906E+03  0.60977992907E+03  0.25500000920E-02 0.  1.
        2   -1    0    0  501    0  0.00000000000E+00  0.00000000000E+00 -0.11938362876E+04  0.11938362876E+04  0.25500000920E-02 0. -1.
    10030    2    1    2    0    0  0.00000000000E+00  0.00000000000E+00 -0.58405635854E+03  0.18036162167E+04  0.17064318407E+04 0.  0.
        4    1    3    3  502    0  0.64709417453E+03  0.54818483834E+03 -0.39083087957E+03  0.93380291123E+03  0.12699999809E+01 0.  1.
       -4    1    3    3    0  502 -0.64709417453E+03 -0.54818483834E+03 -0.19322547896E+03  0.86981330544E+03  0.12699999809E+01 0. -1.
</event>
<event>
 5   0  0.1285639E-04  0.1698261E+04  0.7818609E-02  0.8762357E-01
       -2   -1    0    0    0  501  0.00000000000E+00  0.00000000000E+00  0.19629007249E+04  0.19629007249E+04  0.25500000920E-02 0.  1.
        2   -1    0    0  501    0  0.00000000000E+00  0.00000000000E+00 -0.36732493495E+03  0.36732493496E+03  0.25500000920E-02 0. -1.
    10030    2    1    2    0    0  0.00000000000E+00  0.00000000000E+00  0.15955757900E+04  0.23302256599E+04  0.16982607351E+04 0.  0.
        4    1    3    3  502    0 -0.18447996806E+03 -0.79895629528E+03  0.11004549497E+04  0.13723580909E+04  0.12699999809E+01 0.  1.
       -4    1    3    3    0  502  0.18447996806E+03  0.79895629528E+03  0.49512084029E+03  0.95786756901E+03  0.12699999809E+01 0. -1.
</event>
<event>
 5   0  0.6539134E-05  0.1695592E+04  0.7818609E-02  0.8763883E-01
        1   -1    0    0  501    0  0.00000000000E+00  0.00000000000E+00  0.77777560926E+03  0.77777560928E+03  0.50400001928E-02 0. -1.
       -1   -1    0    0    0  501  0.00000000000E+00  0.00000000000E+00 -0.92411986780E+03  0.92411986781E+03  0.50400001928E-02 0.  1.
    10030    2    1    2    0    0  0.00000000000E+00  0.00000000000E+00 -0.14634425854E+03  0.17018954771E+04  0.16955918061E+04 0.  0.
        2    1    3    3  502    0 -0.24519659239E+03  0.61619336284E+03 -0.60328547226E+03  0.89653164494E+03  0.25500000920E-02 0.  1.
       -2    1    3    3    0  502  0.24519659239E+03 -0.61619336284E+03  0.45694121373E+03  0.80536383215E+03  0.25500000920E-02 0. -1.
</event>
<event>
 5   0  0.1255362E-04  0.1657029E+04  0.7818609E-02  0.8786259E-01
       -2   -1    0    0    0  501  0.00000000000E+00  0.00000000000E+00  0.49911561479E+03  0.49911561480E+03  0.25500000920E-02 0.  1.
        2   -1    0    0  501    0  0.00000000000E+00  0.00000000000E+00 -0.13753055363E+04  0.13753055363E+04  0.25500000920E-02 0. -1.
    10030    2    1    2    0    0  0.00000000000E+00  0.00000000000E+00 -0.87618992149E+03  0.18744211511E+04  0.16570292312E+04 0.  0.
        1    1    3    3  502    0 -0.74424694539E+03 -0.72495618337E+02 -0.84165908152E+03  0.11258548485E+04  0.50400001928E-02 0. -1.
       -1    1    3    3    0  502  0.74424694539E+03  0.72495618337E+02 -0.34530839975E+02  0.74856630257E+03  0.50400001928E-02 0.  1.
</event>
<event>
 5   0  0.6601906E-05  0.1699214E+04  0.7818609E-02  0.8761813E-01
       -1   -1    0    0    0  501  0.00000000000E+00  0.00000000000E+00  0.67698653553E+03  0.67698653554E+03  0.50400001928E-02 0. -1.
        1   -1    0    0  501    0  0.00000000000E+00  0.00000000000E+00 -0.10662423673E+04  0.10662423673E+04  0.50400001928E-02 0.  1.
    10030    2    1    2    0    0  0.00000000000E+00  0.00000000000E+00 -0.38925583174E+03  0.17432289028E+04  0.16992136137E+04 0.  0.
        1    1    3    3  502    0  0.43069152171E+03 -0.73131091509E+03 -0.23463663096E+03  0.88054823265E+03  0.50400001928E-02 0.  1.
       -1    1    3    3    0  502 -0.43069152171E+03  0.73131091509E+03 -0.15461920078E+03  0.86268067017E+03  0.50400001928E-02 0. -1.
</event>
<event>
 5   0  0.6834837E-05  0.1700485E+04  0.7818609E-02  0.8761088E-01
       -1   -1    0    0    0  501  0.00000000000E+00  0.00000000000E+00  0.69502233011E+03  0.69502233012E+03  0.50400001928E-02 0.  1.
        1   -1    0    0  501    0  0.00000000000E+00  0.00000000000E+00 -0.10401281923E+04  0.10401281924E+04  0.50400001928E-02 0. -1.
    10030    2    1    2    0    0  0.00000000000E+00  0.00000000000E+00 -0.34510586223E+03  0.17351505225E+04  0.17004850130E+04 0.  0.
        5    1    3    3  502    0  0.12530322612E+03  0.27131774886E+03  0.63964842284E+03  0.70603570318E+03  0.46999998093E+01 0.  1.
       -5    1    3    3    0  502 -0.12530322612E+03 -0.27131774886E+03 -0.98475428507E+03  0.10291148193E+04  0.46999998093E+01 0. -1.
</event>
<event>
 5   0  0.1255362E-04  0.1694089E+04  0.7818609E-02  0.8764743E-01
       -2   -1    0    0    0  501  0.00000000000E+00  0.00000000000E+00  0.10951839759E+04  0.10951839759E+04  0.25500000920E-02 0.  1.
        2   -1    0    0  501    0  0.00000000000E+00  0.00000000000E+00 -0.65512650741E+03  0.65512650741E+03  0.25500000920E-02 0. -1.
    10030    2    1    2    0    0  0.00000000000E+00  0.00000000000E+00  0.44005746846E+03  0.17503104833E+04  0.16940886082E+04 0.  0.
        1    1    3    3  502    0  0.69560256166E+03  0.22265351002E+03  0.66327267248E+03  0.98659421617E+03  0.50400001928E-02 0.  1.
       -1    1    3    3    0  502 -0.69560256166E+03 -0.22265351002E+03 -0.22321520402E+03  0.76371626710E+03  0.50400001928E-02 0. -1.
</event>
<event>
 5   0  0.6834837E-05  0.1696046E+04  0.7818609E-02  0.8763622E-01
        1   -1    0    0  501    0  0.00000000000E+00  0.00000000000E+00  0.92773528131E+03  0.92773528132E+03  0.50400001928E-02 0.  1.
       -1   -1    0    0    0  501  0.00000000000E+00  0.00000000000E+00 -0.77516001426E+03  0.77516001427E+03  0.50400001928E-02 0. -1.
    10030    2    1    2    0    0  0.00000000000E+00  0.00000000000E+00  0.15257526705E+03  0.17028952956E+04  0.16960463365E+04 0.  0.
        5    1    3    3  502    0  0.25044005727E+03  0.68752988344E+03  0.50662505630E+03  0.89000483177E+03  0.46999998093E+01 0.  1.
       -5    1    3    3    0  502 -0.25044005727E+03 -0.68752988344E+03 -0.35404978925E+03  0.81289046382E+03  0.46999998093E+01 0. -1.
</event>
<event>
 5   0  0.6615842E-05  0.1663773E+04  0.7818609E-02  0.8782300E-01
       -1   -1    0    0    0  501  0.00000000000E+00  0.00000000000E+00  0.41278047071E+03  0.41278047074E+03  0.50400001928E-02 0. -1.
        1   -1    0    0  501    0  0.00000000000E+00  0.00000000000E+00 -0.16765212557E+04  0.16765212558E+04  0.50400001928E-02 0.  1.
    10030    2    1    2    0    0  0.00000000000E+00  0.00000000000E+00 -0.12637407850E+04  0.20893017265E+04  0.16637731013E+04 0.  0.
        3    1    3    3  502    0 -0.69215829278E+03  0.14004858444E+03 -0.11840320599E+04  0.13786328871E+04  0.10100000352E+00 0.  1.
       -3    1    3    3    0  502  0.69215829278E+03 -0.14004858444E+03 -0.79708725158E+02  0.71066883943E+03  0.10100000352E+00 0. -1.
</event>
<event>
 5   0  0.6564887E-05  0.1699216E+04  0.7818609E-02  0.8761811E-01
        1   -1    0    0  501    0  0.00000000000E+00  0.00000000000E+00  0.80667148673E+03  0.80667148675E+03  0.50400001928E-02 0.  1.
       -1   -1    0    0    0  501  0.00000000000E+00  0.00000000000E+00 -0.89483016166E+03  0.89483016167E+03  0.50400001928E-02 0. -1.
    10030    2    1    2    0    0  0.00000000000E+00  0.00000000000E+00 -0.88158674921E+02  0.17015016484E+04  0.16992162628E+04 0.  0.
        4    1    3    3  502    0  0.69069045766E+03  0.49445103811E+03 -0.61342786245E+02  0.85164528280E+03  0.12699999809E+01 0.  1.
       -4    1    3    3    0  502 -0.69069045766E+03 -0.49445103811E+03 -0.26815888676E+02  0.84985636562E+03  0.12699999809E+01 0. -1.
</event>
<event>
 5   0  0.1333546E-04  0.1706765E+04  0.7818609E-02  0.8757515E-01
       -2   -1    0    0    0  501  0.00000000000E+00  0.00000000000E+00  0.77760113720E+03  0.77760113720E+03  0.25500000920E-02 0.  1.
        2   -1    0    0  501    0  0.00000000000E+00  0.00000000000E+00 -0.93654963900E+03  0.93654963900E+03  0.25500000920E-02 0. -1.
    10030    2    1    2    0    0  0.00000000000E+00  0.00000000000E+00 -0.15894850180E+03  0.17141507762E+04  0.17067654371E+04 0.  0.
        5    1    3    3  502    0  0.48985397903E+03 -0.68179436525E+03 -0.23323635901E+03  0.87133332682E+03  0.46999998093E+01 0.  1.
       -5    1    3    3    0  502 -0.48985397903E+03  0.68179436525E+03  0.74287857212E+02  0.84281744939E+03  0.46999998093E+01 0. -1.
</event>
<event>
 5   0  0.1255362E-04  0.1700723E+04  0.7818609E-02  0.8760952E-01
        2   -1    0    0  501    0  0.00000000000E+00  0.00000000000E+00  0.15699265607E+04  0.15699265607E+04  0.25500000920E-02 0. -1.
       -2   -1    0    0    0  501  0.00000000000E+00  0.00000000000E+00 -0.46060390753E+03  0.46060390754E+03  0.25500000920E-02 0.  1.
    10030    2    1    2    0    0  0.00000000000E+00  0.00000000000E+00  0.11093226532E+04  0.20305304683E+04  0.17007225622E+04 0.  0.
        1    1    3    3  502    0 -0.76513577767E+03  0.65313105513E+02  0.11856785463E+03  0.77701795101E+03  0.50400001928E-02 0.  1.
       -1    1    3    3    0  502  0.76513577767E+03 -0.65313105513E+02  0.99075479858E+03  0.12535125173E+04  0.50400001928E-02 0. -1.
</event>
<event>
 5   0  0.6539134E-05  0.1686466E+04  0.7818609E-02  0.8769121E-01
        1   -1    0    0  501    0  0.00000000000E+00  0.00000000000E+00  0.77941747435E+03  0.77941747437E+03  0.50400001928E-02 0.  1.
       -1   -1    0    0    0  501  0.00000000000E+00  0.00000000000E+00 -0.91227389081E+03  0.91227389082E+03  0.50400001928E-02 0. -1.
    10030    2    1    2    0    0  0.00000000000E+00  0.00000000000E+00 -0.13285641646E+03  0.16916913652E+04  0.16864663790E+04 0.  0.
        2    1    3    3  502    0 -0.11684424827E+03  0.16765193928E+03 -0.88705967721E+03  0.91029370098E+03  0.25500000920E-02 0. -1.
       -2    1    3    3    0  502  0.11684424827E+03 -0.16765193928E+03  0.75420326075E+03  0.78139766421E+03  0.25500000920E-02 0.  1.
</event>
<event>
 5   0  0.6834837E-05  0.1684076E+04  0.7818609E-02  0.8770499E-01
        1   -1    0    0  501    0  0.00000000000E+00  0.00000000000E+00  0.49864612854E+03  0.49864612857E+03  0.50400001928E-02 0.  1.
       -1   -1    0    0    0  501  0.00000000000E+00  0.00000000000E+00 -0.14219065760E+04  0.14219065760E+04  0.50400001928E-02 0. -1.
    10030    2    1    2    0    0  0.00000000000E+00  0.00000000000E+00 -0.92326044742E+03  0.19205527045E+04  0.16840762563E+04 0.  0.
        5    1    3    3  502    0  0.74435254236E+03  0.18623166489E+03 -0.85711595268E+03  0.11503967953E+04  0.46999998093E+01 0. -1.
       -5    1    3    3    0  502 -0.74435254236E+03 -0.18623166489E+03 -0.66144494735E+02  0.77015590922E+03  0.46999998093E+01 0.  1.
</event>
<event>
 5   0  0.1393870E-04  0.1704267E+04  0.7818609E-02  0.8758935E-01
        2   -1    0    0  501    0  0.00000000000E+00  0.00000000000E+00  0.77223396352E+03  0.77223396352E+03  0.25500000920E-02 0. -1.
       -2   -1    0    0    0  501  0.00000000000E+00  0.00000000000E+00 -0.94029964375E+03  0.94029964375E+03  0.25500000920E-02 0.  1.
    10030    2    1    2    0    0  0.00000000000E+00  0.00000000000E+00 -0.16806568023E+03  0.17125336073E+04  0.17042667876E+04 0.  0.
        3    1    3    3  502    0  0.53790893641E+03 -0.64582333231E+03  0.56995758057E+02  0.84242645202E+03  0.10100000352E+00 0.  1.
       -3    1    3    3    0  502 -0.53790893641E+03  0.64582333231E+03 -0.22506143829E+03  0.87010715525E+03  0.10100000352E+00 0. -1.
</event>
<event>
 5   0  0.1255362E-04  0.1705125E+04  0.7818609E-02  0.8758447E-01
       -2   -1    0    0    0  501  0.00000000000E+00  0.00000000000E+00  0.53789861099E+03  0.53789861100E+03  0.25500000920E-02 0.  1.
        2   -1    0    0  501    0  0.00000000000E+00  0.00000000000E+00 -0.13513006378E+04  0.13513006378E+04  0.25500000920E-02 0. -1.
    10030    2    1    2    0    0  0.00000000000E+00  0.00000000000E+00 -0.81340202684E+03  0.18891992488E+04  0.17051249058E+04 0.  0.
        1    1    3    3  502    0  0.65338705241E+03  0.22678499063E+02  0.19957720226E+03  0.68356419908E+03  0.50400001928E-02 0.  1.
       -1    1    3    3    0  502 -0.65338705241E+03 -0.22678499063E+02 -0.10129792291E+04  0.12056350498E+04  0.50400001928E-02 0. -1.
</event>
<event>
 5   0  0.4720875E-05  0.1689045E+04  0.7818609E-02  0.8767637E-01
       -3   -1    0    0    0  501  0.00000000000E+00  0.00000000000E+00  0.61361202176E+03  0.61361203007E+03  0.10100000352E+00 0.  1.
        3   -1    0    0  501    0  0.00000000000E+00  0.00000000000E+00 -0.11623282771E+04  0.11623282815E+04  0.10100000352E+00 0. -1.
    10030    2    1    2    0    0  0.00000000000E+00  0.00000000000E+00 -0.54871625531E+03  0.17759403115E+04  0.16890454290E+04 0.  0.
        4    1    3    3  502    0 -0.77367256863E+03 -0.14629800755E+03  0.46711334692E+02  0.78876860494E+03  0.12699999809E+01 0.  1.
       -4    1    3    3    0  502  0.77367256863E+03  0.14629800755E+03 -0.59542759000E+03  0.98717170659E+03  0.12699999809E+01 0. -1.
</event>
<event>
 5   0  0.6539134E-05  0.1708271E+04  0.7818609E-02  0.8756661E-01
        1   -1    0    0  501    0  0.00000000000E+00  0.00000000000E+00  0.53551444477E+03  0.53551444480E+03  0.50400001928E-02 0. -1.
       -1   -1    0    0    0  501  0.00000000000E+00  0.00000000000E+00 -0.13623299337E+04  0.13623299337E+04  0.50400001928E-02 0.  1.
    10030    2    1    2    0    0  0.00000000000E+00  0.00000000000E+00 -0.82681548889E+03  0.18978443785E+04  0.17082708896E+04 0.  0.
        2    1    3    3  502    0 -0.13911449251E+03  0.84272902520E+03 -0.41509485505E+03  0.94965719638E+03  0.25500000920E-02 0. -1.
       -2    1    3    3    0  502  0.13911449251E+03 -0.84272902520E+03 -0.41172063384E+03  0.94818718209E+03  0.25500000920E-02 0.  1.
</event>
<event>
 5   0  0.6834837E-05  0.1704418E+04  0.7818609E-02  0.8758849E-01
       -1   -1    0    0    0  501  0.00000000000E+00  0.00000000000E+00  0.74164306300E+03  0.74164306302E+03  0.50400001928E-02 0. -1.
        1   -1    0    0  501    0  0.00000000000E+00  0.00000000000E+00 -0.97925825062E+03  0.97925825063E+03  0.50400001928E-02 0.  1.
    10030    2    1    2    0    0  0.00000000000E+00  0.00000000000E+00 -0.23761518761E+03  0.17209013137E+04  0.17044178930E+04 0.  0.
        5    1    3    3  502    0 -0.66188010901E+03 -0.52101501402E+03  0.11655320043E+02  0.84243685818E+03  0.46999998093E+01 0. -1.
       -5    1    3    3    0  502  0.66188010901E+03  0.52101501402E+03 -0.24927050766E+03  0.87846445547E+03  0.46999998093E+01 0.  1.
</event>
<event>
 5   0  0.6539134E-05  0.1675212E+04  0.7818609E-02  0.8775629E-01
       -1   -1    0    0    0  501  0.00000000000E+00  0.00000000000E+00  0.10331847405E+04  0.10331847405E+04  0.50400001928E-02 0. -1.
        1   -1    0    0  501    0  0.00000000000E+00  0.00000000000E+00 -0.67904971979E+03  0.67904971981E+03  0.50400001928E-02 0.  1.
    10030    2    1    2    0    0  0.00000000000E+00  0.00000000000E+00  0.35413502067E+03  0.17122344603E+04  0.16752119968E+04 0.  0.
        2    1    3    3  502    0  0.68655103314E+03  0.73191972195E+02  0.66175687415E+03  0.95636371031E+03  0.25500000920E-02 0. -1.
       -2    1    3    3    0  502 -0.68655103314E+03 -0.73191972195E+02 -0.30762185348E+03  0.75587074996E+03  0.25500000920E-02 0.  1.
</event>
<event>
 5   0  0.6834837E-05  0.1724391E+04  0.7818609E-02  0.8747574E-01
       -1   -1    0    0    0  501  0.00000000000E+00  0.00000000000E+00  0.71647470426E+03  0.71647470428E+03  0.50400001928E-02 0.  1.
        1   -1    0    0  501    0  0.00000000000E+00  0.00000000000E+00 -0.10375534806E+04  0.10375534806E+04  0.50400001928E-02 0. -1.
    10030    2    1    2    0    0  0.00000000000E+00  0.00000000000E+00 -0.32107877633E+03  0.17540281849E+04  0.17243907019E+04 0.  0.
        5    1    3    3  502    0  0.25829884902E+03  0.48461129042E+03  0.51555912915E+03  0.75325274899E+03  0.46999998093E+01 0.  1.
       -5    1    3    3    0  502 -0.25829884902E+03 -0.48461129042E+03 -0.83663790547E+03  0.10007754359E+04  0.46999998093E+01 0. -1.
</event>
<event>
 5   0  0.6539134E-05  0.1705182E+04  0.7818609E-02  0.8758414E-01
       -1   -1    0    0    0  501  0.00000000000E+00  0.00000000000E+00  0.10738224016E+04  0.10738224016E+04  0.50400001928E-02 0.  1.
        1   -1    0    0  501    0  0.00000000000E+00  0.00000000000E+00 -0.67693830358E+03  0.67693830360E+03  0.50400001928E-02 0. -1.
    10030    2    1    2    0    0  0.00000000000E+00  0.00000000000E+00  0.39688409803E+03  0.17507607052E+04  0.17051821192E+04 0.  0.
        2    1    3    3  502    0 -0.74347751930E+03 -0.32156250222E+03 -0.74656888922E+02  0.81347090643E+03  0.25500000920E-02 0. -1.
       -2    1    3    3    0  502  0.74347751930E+03  0.32156250222E+03  0.47154098695E+03  0.93728979879E+03  0.25500000920E-02 0.  1.
</event>
<event>
 5   0  0.1393870E-04  0.1737854E+04  0.7818609E-02  0.8740064E-01
        2   -1    0    0  501    0  0.00000000000E+00  0.00000000000E+00  0.10825355771E+04  0.10825355771E+04  0.25500000920E-02 0. -1.
       -2   -1    0    0    0  501  0.00000000000E+00  0.00000000000E+00 -0.69746852527E+03  0.69746852527E+03  0.25500000920E-02 0.  1.
    10030    2    1    2    0    0  0.00000000000E+00  0.00000000000E+00  0.38506705183E+03  0.17800041024E+04  0.17378544157E+04 0.  0.
        3    1    3    3  502    0 -0.73177968143E+03 -0.46232298218E+03  0.11459298678E+03  0.87314122846E+03  0.10100000352E+00 0.  1.
       -3    1    3    3    0  502  0.73177968143E+03  0.46232298218E+03  0.27047406505E+03  0.90686287391E+03  0.10100000352E+00 0. -1.
</event>
<event>
 5   0  0.1269175E-04  0.1701492E+04  0.7818609E-02  0.8760514E-01
       -2   -1    0    0    0  501  0.00000000000E+00  0.00000000000E+00  0.47894621518E+03  0.47894621518E+03  0.25500000920E-02 0. -1.
        2   -1    0    0  501    0  0.00000000000E+00  0.00000000000E+00 -0.15111684108E+04  0.15111684108E+04  0.25500000920E-02 0.  1.
    10030    2    1    2    0    0  0.00000000000E+00  0.00000000000E+00 -0.10322221956E+04  0.19901146260E+04  0.17014915702E+04 0.  0.
        2    1    3    3  502    0 -0.77809037325E+03  0.16920024188E+03 -0.16577820326E+03  0.81334848834E+03  0.25500000920E-02 0. -1.
       -2    1    3    3    0  502  0.77809037325E+03 -0.16920024188E+03 -0.86644399236E+03  0.11767661376E+04  0.25500000920E-02 0.  1.
</event>
<event>
 5   0  0.1255362E-04  0.1693001E+04  0.7818609E-02  0.8765366E-01
        2   -1    0    0  501    0  0.00000000000E+00  0.00000000000E+00  0.10075028516E+04  0.10075028516E+04  0.25500000920E-02 0. -1.
       -2   -1    0    0    0  501  0.00000000000E+00  0.00000000000E+00 -0.71122721171E+03  0.71122721171E+03  0.25500000920E-02 0.  1.
    10030    2    1    2    0    0  0.00000000000E+00  0.00000000000E+00  0.29627563989E+03  0.17187300633E+04  0.16930014104E+04 0.  0.
        1    1    3    3  502    0  0.65261510578E+03 -0.10948872667E+03 -0.38777584179E+03  0.76698393794E+03  0.50400001928E-02 0.  1.
       -1    1    3    3    0  502 -0.65261510578E+03  0.10948872667E+03  0.68405148168E+03  0.95174612538E+03  0.50400001928E-02 0. -1.
</event>
<event>
 5   0  0.6539134E-05  0.1704444E+04  0.7818609E-02  0.8758834E-01
        1   -1    0    0  501    0  0.00000000000E+00  0.00000000000E+00  0.68028522060E+03  0.68028522061E+03  0.50400001928E-02 0.  1.
       -1   -1    0    0    0  501  0.00000000000E+00  0.00000000000E+00 -0.10676150742E+04  0.10676150742E+04  0.50400001928E-02 0. -1.
    10030    2    1    2    0    0  0.00000000000E+00  0.00000000000E+00 -0.38732985358E+03  0.17479002948E+04  0.17044444916E+04 0.  0.
        2    1    3    3  502    0  0.55771508545E+03  0.54487350128E+03  0.15912568591E+03  0.79577272689E+03  0.25500000920E-02 0.  1.
       -2    1    3    3    0  502 -0.55771508545E+03 -0.54487350128E+03 -0.54645553950E+03  0.95212756792E+03  0.25500000920E-02 0. -1.
</event>
<event>
 5   0  0.1285639E-04  0.1691349E+04  0.7818609E-02  0.8766314E-01
       -2   -1    0    0    0  501  0.00000000000E+00  0.00000000000E+00  0.95057211300E+03  0.95057211301E+03  0.25500000920E-02 0.  1.
        2   -1    0    0  501    0  0.00000000000E+00  0.00000000000E+00 -0.75235269444E+03  0.75235269445E+03  0.25500000920E-02 0. -1.
    10030    2    1    2    0    0  0.00000000000E+00  0.00000000000E+00  0.19821941856E+03  0.17029248075E+04  0.16913491544E+04 0.  0.
        4    1    3    3  502    0 -0.48755775758E+03  0.24691242134E+03 -0.55066406601E+03  0.77582912892E+03  0.12699999809E+01 0. -1.
       -4    1    3    3    0  502  0.48755775758E+03 -0.24691242134E+03  0.74888348457E+03  0.92709567853E+03  0.12699999809E+01 0.  1.
</event>
<event>
 5   0  0.6601906E-05  0.1691346E+04  0.7818609E-02  0.8766316E-01
       -1   -1    0    0    0  501  0.00000000000E+00  0.00000000000E+00  0.52091982281E+03  0.52091982283E+03  0.50400001928E-02 0. -1.
        1   -1    0    0  501    0  0.00000000000E+00  0.00000000000E+00 -0.13728845886E+04  0.13728845886E+04  0.50400001928E-02 0.  1.
    10030    2    1    2    0    0  0.00000000000E+00  0.00000000000E+00 -0.85196476575E+03  0.18938044114E+04  0.16913459689E+04 0.  0.
        1    1    3    3  502    0  0.41978514708E+03 -0.16523435938E+03  0.37493048260E+03  0.58659596831E+03  0.50400001928E-02 0. -1.
       -1    1    3    3    0  502 -0.41978514708E+03  0.16523435938E+03 -0.12268952484E+04  0.13072084431E+04  0.50400001928E-02 0.  1.
</event>
<event>
 5   0  0.6564887E-05  0.1699780E+04  0.7818609E-02  0.8761490E-01
       -1   -1    0    0    0  501  0.00000000000E+00  0.00000000000E+00  0.18550208604E+04  0.18550208604E+04  0.50400001928E-02 0.  1.
        1   -1    0    0  501    0  0.00000000000E+00  0.00000000000E+00 -0.38938258139E+03  0.38938258142E+03  0.50400001928E-02 0. -1.
    10030    2    1    2    0    0  0.00000000000E+00  0.00000000000E+00  0.14656382790E+04  0.22444034418E+04  0.16997797636E+04 0.  0.
        4    1    3    3  502    0  0.47765504045E+03  0.46892302151E+03  0.14243250384E+04  0.15737682694E+04  0.12699999809E+01 0.  1.
       -4    1    3    3    0  502 -0.47765504045E+03 -0.46892302151E+03  0.41313240606E+02  0.67063517244E+03  0.12699999809E+01 0. -1.
</event>
<event>
 5   0  0.1393870E-04  0.1697707E+04  0.7818609E-02  0.8762673E-01
        2   -1    0    0  501    0  0.00000000000E+00  0.00000000000E+00  0.22491775661E+04  0.22491775661E+04  0.25500000920E-02 0.  1.
       -2   -1    0    0    0  501  0.00000000000E+00  0.00000000000E+00 -0.32036264264E+03  0.32036264265E+03  0.25500000920E-02 0. -1.
    10030    2    1    2    0    0  0.00000000000E+00  0.00000000000E+00  0.19288149235E+04  0.25695402088E+04  0.16977072408E+04 0.  0.
        3    1    3    3  502    0  0.71595203574E+03  0.45363080031E+03  0.89367111666E+03  0.12316721542E+04  0.10100000352E+00 0. -1.
       -3    1    3    3    0  502 -0.71595203574E+03 -0.45363080031E+03  0.10351438068E+04  0.13378680546E+04  0.10100000352E+00 0.  1.
</event>
<event>
 5   0  0.6834837E-05  0.1701331E+04  0.7818609E-02  0.8760606E-01
        1   -1    0    0  501    0  0.00000000000E+00  0.00000000000E+00  0.17577280589E+04  0.17577280589E+04  0.50400001928E-02 0. -1.
       -1   -1    0    0    0  501  0.00000000000E+00  0.00000000000E+00 -0.41168565807E+03  0.41168565810E+03  0.50400001928E-02 0.  1.
    10030    2    1    2    0    0  0.00000000000E+00  0.00000000000E+00  0.13460424008E+04  0.21694137170E+04  0.17013305765E+04 0.  0.
        5    1    3    3  502    0  0.33075475590E+03 -0.16854483998E+03 -0.30293329929E+03  0.47916254596E+03  0.46999998093E+01 0.  1.
       -5    1    3    3    0  502 -0.33075475590E+03  0.16854483998E+03  0.16489757001E+04  0.16902511710E+04  0.46999998093E+01 0. -1.
</event>
<event>
 5   0  0.1393870E-04  0.1704738E+04  0.7818609E-02  0.8758667E-01
       -2   -1    0    0    0  501  0.00000000000E+00  0.00000000000E+00  0.67699955676E+03  0.67699955676E+03  0.25500000920E-02 0.  1.
        2   -1    0    0  501    0  0.00000000000E+00  0.00000000000E+00 -0.10731655337E+04  0.10731655337E+04  0.25500000920E-02 0. -1.
    10030    2    1    2    0    0  0.00000000000E+00  0.00000000000E+00 -0.39616597694E+03  0.17501650905E+04  0.17047376228E+04 0.  0.
        3    1    3    3  502    0 -0.39500588406E+03 -0.73319494620E+03 -0.11786432647E+02  0.83291260512E+03  0.10100000352E+00 0.  1.
       -3    1    3    3    0  502  0.39500588406E+03  0.73319494620E+03 -0.38437954429E+03  0.91725248533E+03  0.10100000352E+00 0. -1.
</event>
<event>
 5   0  0.6564887E-05  0.1701575E+04  0.7818609E-02  0.8760467E-01
        1   -1    0    0  501    0  0.00000000000E+00  0.00000000000E+00  0.97442788209E+03  0.97442788210E+03  0.50400001928E-02 0.  1.
       -1   -1    0    0    0  501  0.00000000000E+00  0.00000000000E+00 -0.74283495394E+03  0.74283495396E+03  0.50400001928E-02 0. -1.
    10030    2    1    2    0    0  0.00000000000E+00  0.00000000000E+00  0.23159292815E+03  0.17172628361E+04  0.17015746718E+04 0.  0.
        4    1    3    3  502    0 -0.64431077900E+02 -0.26569788131E+03  0.92888618173E+03  0.96828605249E+03  0.12699999809E+01 0.  1.
       -4    1    3    3    0  502  0.64431077900E+02  0.26569788131E+03 -0.69729325359E+03  0.74897678357E+03  0.12699999809E+01 0. -1.
</event>
<event>
 5   0  0.6834837E-05  0.1703219E+04  0.7818609E-02  0.8759531E-01
        1   -1    0    0  501    0  0.00000000000E+00  0.00000000000E+00  0.69329264406E+03  0.69329264408E+03  0.50400001928E-02 0. -1.
       -1   -1    0    0    0  501  0.00000000000E+00  0.00000000000E+00 -0.10460788867E+04  0.10460788867E+04  0.50400001928E-02 0.  1.
    10030    2    1    2    0    0  0.00000000000E+00  0.00000000000E+00 -0.35278624267E+03  0.17393715308E+04  0.17032190667E+04 0.  0.
        5    1    3    3  502    0 -0.67813953183E+03 -0.16036289026E+03  0.32351469533E+03  0.76829247640E+03  0.46999998093E+01 0. -1.
       -5    1    3    3    0  502  0.67813953183E+03  0.16036289026E+03 -0.67630093799E+03  0.97107905442E+03  0.46999998093E+01 0.  1.
</event>
<event>
 5   0  0.1333546E-04  0.1712290E+04  0.7818609E-02  0.8754386E-01
       -2   -1    0    0    0  501  0.00000000000E+00  0.00000000000E+00  0.14211242470E+04  0.14211242470E+04  0.25500000920E-02 0. -1.
        2   -1    0    0  501    0  0.00000000000E+00  0.00000000000E+00 -0.51577797033E+03  0.51577797034E+03  0.25500000920E-02 0.  1.
    10030    2    1    2    0    0  0.00000000000E+00  0.00000000000E+00  0.90534627665E+03  0.19369022173E+04  0.17122903722E+04 0.  0.
        5    1    3    3  502    0  0.21900724637E+03  0.16471738688E+03 -0.46481227185E+03  0.53960034244E+03  0.46999998093E+01 0.  1.
       -5    1    3    3    0  502 -0.21900724637E+03 -0.16471738688E+03  0.13701585485E+04  0.13973018749E+04  0.46999998093E+01 0. -1.
</event>
<event>
 5   0  0.6601906E-05  0.1701649E+04  0.7818609E-02  0.8760424E-01
        1   -1    0    0  501    0  0.00000000000E+00  0.00000000000E+00  0.14600585642E+04  0.14600585642E+04  0.50400001928E-02 0.  1.
       -1   -1    0    0    0  501  0.00000000000E+00  0.00000000000E+00 -0.49580379460E+03  0.49580379463E+03  0.50400001928E-02 0. -1.
    10030    2    1    2    0    0  0.00000000000E+00  0.00000000000E+00  0.96425476956E+03  0.19558623588E+04  0.17016492899E+04 0.  0.
        1    1    3    3  502    0 -0.16739614835E+03 -0.78029783682E+03  0.82118130282E+03  0.11450872966E+04  0.50400001928E-02 0.  1.
       -1    1    3    3    0  502  0.16739614835E+03  0.78029783682E+03  0.14307346674E+03  0.81077506223E+03  0.50400001928E-02 0. -1.
</event>
<event>
 5   0  0.1333546E-04  0.1689382E+04  0.7818609E-02  0.8767443E-01
       -2   -1    0    0    0  501  0.00000000000E+00  0.00000000000E+00  0.46854271519E+03  0.46854271519E+03  0.25500000920E-02 0. -1.
        2   -1    0    0  501    0  0.00000000000E+00  0.00000000000E+00 -0.15228128974E+04  0.15228128974E+04  0.25500000920E-02 0.  1.
    10030    2    1    2    0    0  0.00000000000E+00  0.00000000000E+00 -0.10542701822E+04  0.19913556126E+04  0.16893820050E+04 0.  0.
        5    1    3    3  502    0  0.14422448323E+03 -0.67226933587E+03  0.51213536125E+02  0.68948653199E+03  0.46999998093E+01 0. -1.
       -5    1    3    3    0  502 -0.14422448323E+03  0.67226933587E+03 -0.11054837183E+04  0.13018690806E+04  0.46999998093E+01 0.  1.
</event>
<event>
 5   0  0.6539134E-05  0.1696701E+04  0.7818609E-02  0.8763248E-01
       -1   -1    0    0    0  501  0.00000000000E+00  0.00000000000E+00  0.25138467995E+04  0.25138467995E+04  0.50400001928E-02 0. -1.
        1   -1    0    0  501    0  0.00000000000E+00  0.00000000000E+00 -0.28629377841E+03  0.28629377846E+03  0.50400001928E-02 0.  1.
    10030    2    1    2    0    0  0.00000000000E+00  0.00000000000E+00  0.22275530211E+04  0.28001405780E+04  0.16967011507E+04 0.  0.
        2    1    3    3  502    0  0.61865138290E+03  0.18923470893E+03  0.20194521476E+04  0.21205485811E+04  0.25500000920E-02 0. -1.
       -2    1    3    3    0  502 -0.61865138290E+03 -0.18923470893E+03  0.20810087355E+03  0.67959199687E+03  0.25500000920E-02 0.  1.
</event>
<event>
 5   0  0.6615842E-05  0.1702114E+04  0.7818609E-02  0.8760159E-01
        1   -1    0    0  501    0  0.00000000000E+00  0.00000000000E+00  0.67561938272E+03  0.67561938273E+03  0.50400001928E-02 0. -1.
       -1   -1    0    0    0  501  0.00000000000E+00  0.00000000000E+00 -0.10720508379E+04  0.10720508379E+04  0.50400001928E-02 0.  1.
    10030    2    1    2    0    0  0.00000000000E+00  0.00000000000E+00 -0.39643145519E+03  0.17476702206E+04  0.17021143620E+04 0.  0.
        3    1    3    3  502    0  0.16991002248E+03 -0.16041649681E+03 -0.10384674727E+04  0.10644329806E+04  0.10100000352E+00 0.  1.
       -3    1    3    3    0  502 -0.16991002248E+03  0.16041649681E+03  0.64203601751E+03  0.68323724003E+03  0.10100000352E+00 0. -1.
</event>
<event>
 5   0  0.6834837E-05  0.1701082E+04  0.7818609E-02  0.8760747E-01
        1   -1    0    0  501    0  0.00000000000E+00  0.00000000000E+00  0.93178443827E+03  0.93178443828E+03  0.50400001928E-02 0. -1.
       -1   -1    0    0    0  501  0.00000000000E+00  0.00000000000E+00 -0.77638149175E+03  0.77638149176E+03  0.50400001928E-02 0.  1.
    10030    2    1    2    0    0  0.00000000000E+00  0.00000000000E+00  0.15540294652E+03  0.17081659300E+04  0.17010822346E+04 0.  0.
        5    1    3    3  502    0 -0.46167592778E+03  0.18145616339E+03 -0.61606417617E+03  0.79096659897E+03  0.46999998093E+01 0.  1.
       -5    1    3    3    0  502  0.46167592778E+03 -0.18145616339E+03  0.77146712270E+03  0.91719933108E+03  0.46999998093E+01 0. -1.
</event>
<event>
 5   0  0.1269175E-04  0.1690748E+04  0.7818609E-02  0.8766659E-01
        2   -1    0    0  501    0  0.00000000000E+00  0.00000000000E+00  0.14821982656E+04  0.14821982656E+04  0.25500000920E-02 0. -1.
       -2   -1    0    0    0  501  0.00000000000E+00  0.00000000000E+00 -0.48216005752E+03  0.48216005753E+03  0.25500000920E-02 0.  1.
    10030    2    1    2    0    0  0.00000000000E+00  0.00000000000E+00  0.10000382081E+04  0.19643583232E+04  0.16907475282E+04 0.  0.
        2    1    3    3  502    0 -0.84457512987E+03 -0.26154503369E+02  0.52999321549E+03  0.99743872820E+03  0.25500000920E-02 0. -1.
       -2    1    3    3    0  502  0.84457512987E+03  0.26154503369E+02  0.47004499261E+03  0.96691959496E+03  0.25500000920E-02 0.  1.
</event>
<event>
 5   0  0.1255362E-04  0.1698904E+04  0.7818609E-02  0.8761990E-01
        2   -1    0    0  501    0  0.00000000000E+00  0.00000000000E+00  0.13823448888E+04  0.13823448888E+04  0.25500000920E-02 0.  1.
       -2   -1    0    0    0  501  0.00000000000E+00  0.00000000000E+00 -0.52198907409E+03  0.52198907409E+03  0.25500000920E-02 0. -1.
    10030    2    1    2    0    0  0.00000000000E+00  0.00000000000E+00  0.86035581470E+03  0.19043339629E+04  0.16989042687E+04 0.  0.
        1    1    3    3  502    0  0.11326358234E+03  0.46584958804E+03  0.12162006415E+04  0.13072828608E+04  0.50400001928E-02 0.  1.
       -1    1    3    3    0  502 -0.11326358234E+03 -0.46584958804E+03 -0.35584482676E+03  0.59705110210E+03  0.50400001928E-02 0. -1.
</event>
<event>
 5   0  0.6601906E-05  0.1694246E+04  0.7818609E-02  0.8764653E-01
        1   -1    0    0  501    0  0.00000000000E+00  0.00000000000E+00  0.99594969649E+03  0.99594969650E+03  0.50400001928E-02 0. -1.
       -1   -1    0    0    0  501  0.00000000000E+00  0.00000000000E+00 -0.72053546387E+03  0.72053546388E+03  0.50400001928E-02 0.  1.
    10030    2    1    2    0    0  0.00000000000E+00  0.00000000000E+00  0.27541423262E+03  0.17164851604E+04  0.16942456452E+04 0.  0.
        1    1    3    3  502    0 -0.15435988786E+03 -0.25706505869E+02 -0.70576512949E+03  0.72290540008E+03  0.50400001928E-02 0.  1.
       -1    1    3    3    0  502  0.15435988786E+03  0.25706505869E+02  0.98117936212E+03  0.99357976031E+03  0.50400001928E-02 0. -1.
</event>
<event>
 5   0  0.6615842E-05  0.1656041E+04  0.7818609E-02  0.8786841E-01
       -1   -1    0    0    0  501  0.00000000000E+00  0.00000000000E+00  0.55444115594E+03  0.55444115596E+03  0.50400001928E-02 0. -1.
        1   -1    0    0  501    0  0.00000000000E+00  0.00000000000E+00 -0.12365928133E+04  0.12365928133E+04  0.50400001928E-02 0.  1.
    10030    2    1    2    0    0  0.00000000000E+00  0.00000000000E+00 -0.68215165735E+03  0.17910339693E+04  0.16560410005E+04 0.  0.
        3    1    3    3  502    0 -0.12713571384E+03 -0.60797573966E+03 -0.93326846235E+03  0.11210655747E+04  0.10100000352E+00 0.  1.
       -3    1    3    3    0  502  0.12713571384E+03  0.60797573966E+03  0.25111680501E+03  0.66996839456E+03  0.10100000352E+00 0. -1.
</event>
<event>
 5   0  0.6615842E-05  0.1699190E+04  0.7818609E-02  0.8761826E-01
        1   -1    0    0  501    0  0.00000000000E+00  0.00000000000E+00  0.88987353561E+03  0.88987353562E+03  0.50400001928E-02 0.  1.
       -1   -1    0    0    0  501  0.00000000000E+00  0.00000000000E+00 -0.81113989584E+03  0.81113989586E+03  0.50400001928E-02 0. -1.
    10030    2    1    2    0    0  0.00000000000E+00  0.00000000000E+00  0.78733639761E+02  0.17010134315E+04  0.16991903095E+04 0.  0.
        3    1    3    3  502    0  0.18139602373E+03 -0.44908211069E+03  0.73813627883E+03  0.88285017749E+03  0.10100000352E+00 0.  1.
       -3    1    3    3    0  502 -0.18139602373E+03  0.44908211069E+03 -0.65940263907E+03  0.81816325399E+03  0.10100000352E+00 0. -1.
</event>
<event>
 5   0  0.6539134E-05  0.1711424E+04  0.7818609E-02  0.8754876E-01
       -1   -1    0    0    0  501  0.00000000000E+00  0.00000000000E+00  0.16930432804E+04  0.16930432804E+04  0.50400001928E-02 0. -1.
        1   -1    0    0  501    0  0.00000000000E+00  0.00000000000E+00 -0.43250106429E+03  0.43250106432E+03  0.50400001928E-02 0.  1.
    10030    2    1    2    0    0  0.00000000000E+00  0.00000000000E+00  0.12605422161E+04  0.21255443447E+04  0.17114239927E+04 0.  0.
        2    1    3    3  502    0  0.30077249868E+03 -0.30513206333E+03 -0.28969003983E+03  0.51719434569E+03  0.25500000920E-02 0.  1.
       -2    1    3    3    0  502 -0.30077249868E+03  0.30513206333E+03  0.15502322559E+04  0.16083499990E+04  0.25500000920E-02 0. -1.
</event>
<event>
 5   0  0.1255362E-04  0.1703830E+04  0.7818609E-02  0.8759183E-01
       -2   -1    0    0    0  501  0.00000000000E+00  0.00000000000E+00  0.32607907226E+03  0.32607907227E+03  0.25500000920E-02 0. -1.
        2   -1    0    0  501    0  0.00000000000E+00  0.00000000000E+00 -0.22257145564E+04  0.22257145564E+04  0.25500000920E-02 0.  1.
    10030    2    1    2    0    0  0.00000000000E+00  0.00000000000E+00 -0.18996354842E+04  0.25517936287E+04  0.17038297306E+04 0.  0.
        1    1    3    3  502    0 -0.66212814305E+03  0.12194192753E+03 -0.16804049432E+03  0.69391722797E+03  0.50400001928E-02 0. -1.
       -1    1    3    3    0  502  0.66212814305E+03 -0.12194192753E+03 -0.17315949898E+04  0.18578764007E+04  0.50400001928E-02 0.  1.
</event>
<event>
 5   0  0.1393870E-04  0.1701935E+04  0.7818609E-02  0.8760262E-01
       -2   -1    0    0    0  501  0.00000000000E+00  0.00000000000E+00  0.71534396373E+03  0.71534396373E+03  0.25500000920E-02 0.  1.
        2   -1    0    0  501    0  0.00000000000E+00  0.00000000000E+00 -0.10123040182E+04  0.10123040182E+04  0.25500000920E-02 0. -1.
    10030    2    1    2    0    0  0.00000000000E+00  0.00000000000E+00 -0.29696005450E+03  0.17276479820E+04  0.17019348623E+04 0.  0.
        3    1    3    3  502    0 -0.29724540963E+03  0.68904056336E+03  0.25884763930E+03  0.79380970143E+03  0.10100000352E+00 0.  1.
       -3    1    3    3    0  502  0.29724540963E+03 -0.68904056336E+03 -0.55580769380E+03  0.93383828054E+03  0.10100000352E+00 0. -1.
</event>
<event>
 5   0  0.6615842E-05  0.1707069E+04  0.7818609E-02  0.8757343E-01
       -1   -1    0    0    0  501  0.00000000000E+00  0.00000000000E+00  0.49337522456E+03  0.49337522458E+03  0.50400001928E-02 0. -1.
        1   -1    0    0  501    0  0.00000000000E+00  0.00000000000E+00 -0.14766065337E+04  0.14766065337E+04  0.50400001928E-02 0.  1.
    10030    2    1    2    0    0  0.00000000000E+00  0.00000000000E+00 -0.98323130917E+03  0.19699817583E+04  0.17070689268E+04 0.  0.
        3    1    3    3  502    0 -0.76706627700E+02 -0.84906591212E+03 -0.53953490581E+03  0.10089077037E+04  0.10100000352E+00 0.  1.
       -3    1    3    3    0  502  0.76706627700E+02  0.84906591212E+03 -0.44369640336E+03  0.96107405459E+03  0.10100000352E+00 0. -1.
</event>
<event>
 5   0  0.1285639E-04  0.1693759E+04  0.7818609E-02  0.8764932E-01
       -2   -1    0    0    0  501  0.00000000000E+00  0.00000000000E+00  0.88593696890E+03  0.88593696890E+03  0.25500000920E-02 0. -1.
        2   -1    0    0  501    0  0.00000000000E+00  0.00000000000E+00 -0.80954417304E+03  0.80954417304E+03  0.25500000920E-02 0.  1.
    10030    2    1    2    0    0  0.00000000000E+00  0.00000000000E+00  0.76392795860E+02  0.16954811419E+04  0.16937592637E+04 0.  0.
        4    1    3    3  502    0  0.20867451146E+03  0.38938367221E+03 -0.68506064658E+03  0.81515299073E+03  0.12699999809E+01 0.  1.
       -4    1    3    3    0  502 -0.20867451146E+03 -0.38938367221E+03  0.76145344244E+03  0.88032815121E+03  0.12699999809E+01 0. -1.
</event>
<event>
 5   0  0.6615842E-05  0.1703049E+04  0.7818609E-02  0.8759627E-01
       -1   -1    0    0    0  501  0.00000000000E+00  0.00000000000E+00  0.72859985103E+03  0.72859985104E+03  0.50400001928E-02 0. -1.
        1   -1    0    0  501    0  0.00000000000E+00  0.00000000000E+00 -0.99518860840E+03  0.99518860841E+03  0.50400001928E-02 0.  1.
    10030    2    1    2    0    0  0.00000000000E+00  0.00000000000E+00 -0.26658875737E+03  0.17237884595E+04  0.17030493497E+04 0.  0.
        3    1    3    3  502    0  0.20354390222E+03  0.56240545658E+03 -0.74678111523E+03  0.95677168749E+03  0.10100000352E+00 0.  1.
       -3    1    3    3    0  502 -0.20354390222E+03 -0.56240545658E+03  0.48019235785E+03  0.76701677196E+03  0.10100000352E+00 0. -1.
</event>
<event>
 5   0  0.6615842E-05  0.1683169E+04  0.7818609E-02  0.8771022E-01
       -1   -1    0    0    0  501  0.00000000000E+00  0.00000000000E+00  0.93322586066E+03  0.93322586068E+03  0.50400001928E-02 0. -1.
        1   -1    0    0  501    0  0.00000000000E+00  0.00000000000E+00 -0.75894260077E+03  0.75894260078E+03  0.50400001928E-02 0.  1.
    10030    2    1    2    0    0  0.00000000000E+00  0.00000000000E+00  0.17428325990E+03  0.16921684615E+04  0.16831694648E+04 0.  0.
        3    1    3    3  502    0  0.15032556430E+03 -0.53964246667E+03  0.71855450148E+03  0.91111599092E+03  0.10100000352E+00 0. -1.
       -3    1    3    3    0  502 -0.15032556430E+03  0.53964246667E+03 -0.54427124159E+03  0.78105247054E+03  0.10100000352E+00 0.  1.
</event>
<event>
 5   0  0.1333546E-04  0.1699111E+04  0.7818609E-02  0.8761871E-01
       -2   -1    0    0    0  501  0.00000000000E+00  0.00000000000E+00  0.94276379784E+03  0.94276379784E+03  0.25500000920E-02 0. -1.
        2   -1    0    0  501    0  0.00000000000E+00  0.00000000000E+00 -0.76556269600E+03  0.76556269600E+03  0.25500000920E-02 0.  1.
    10030    2    1    2    0    0  0.00000000000E+00  0.00000000000E+00  0.17720110184E+03  0.17083264938E+04  0.16991112910E+04 0.  0.
        5    1    3    3  502    0 -0.21351016820E+02 -0.14698240094E+03 -0.75239463205E+03  0.76692859148E+03  0.46999998093E+01 0.  1.
       -5    1    3    3    0  502  0.21351016820E+02  0.14698240094E+03  0.92959573389E+03  0.94139790236E+03  0.46999998093E+01 0. -1.
</event>
<event>
 5   0  0.6564887E-05  0.1700456E+04  0.7818609E-02  0.8761104E-01
        1   -1    0    0  501    0  0.00000000000E+00  0.00000000000E+00  0.65599929812E+03  0.65599929814E+03  0.50400001928E-02 0. -1.
       -1   -1    0    0    0  501  0.00000000000E+00  0.00000000000E+00 -0.11019646888E+04  0.11019646888E+04  0.50400001928E-02 0.  1.
    10030    2    1    2    0    0  0.00000000000E+00  0.00000000000E+00 -0.44596539071E+03  0.17579639870E+04  0.17004564828E+04 0.  0.
        4    1    3    3  502    0  0.53678894520E+03  0.22608532446E+03  0.41734229551E+03  0.71654249710E+03  0.12699999809E+01 0. -1.
       -4    1    3    3    0  502 -0.53678894520E+03 -0.22608532446E+03 -0.86330768622E+03  0.10414214899E+04  0.12699999809E+01 0.  1.
</event>
<event>
 5   0  0.6615842E-05  0.1699521E+04  0.7818609E-02  0.8761638E-01
        1   -1    0    0  501    0  0.00000000000E+00  0.00000000000E+00  0.53479909524E+03  0.53479909526E+03  0.50400001928E-02 0. -1.
       -1   -1    0    0    0  501  0.00000000000E+00  0.00000000000E+00 -0.13502133031E+04  0.13502133031E+04  0.50400001928E-02 0.  1.
    10030    2    1    2    0    0  0.00000000000E+00  0.00000000000E+00 -0.81541420788E+03  0.18850123984E+04  0.16995209359E+04 0.  0.
        3    1    3    3  502    0 -0.11269767366E+02 -0.41375194765E+03  0.41543509214E+03  0.58643329359E+03  0.10100000352E+00 0. -1.
       -3    1    3    3    0  502  0.11269767366E+02  0.41375194765E+03 -0.12308493000E+04  0.12985791048E+04  0.10100000352E+00 0.  1.
</event>
<event>
 5   0  0.1269175E-04  0.1687819E+04  0.7818609E-02  0.8768342E-01
        2   -1    0    0  501    0  0.00000000000E+00  0.00000000000E+00  0.99365088302E+03  0.99365088302E+03  0.25500000920E-02 0.  1.
       -2   -1    0    0    0  501  0.00000000000E+00  0.00000000000E+00 -0.71673353613E+03  0.71673353613E+03  0.25500000920E-02 0. -1.
    10030    2    1    2    0    0  0.00000000000E+00  0.00000000000E+00  0.27691734689E+03  0.17103844192E+04  0.16878186053E+04 0.  0.
        2    1    3    3  502    0  0.47056380158E+03  0.17792455106E+03 -0.54816609773E+03  0.74402520652E+03  0.25500000920E-02 0. -1.
       -2    1    3    3    0  502 -0.47056380158E+03 -0.17792455106E+03  0.82508344463E+03  0.96635921263E+03  0.25500000920E-02 0.  1.
</event>
<event>
 5   0  0.6564887E-05  0.1689649E+04  0.7818609E-02  0.8767290E-01
        1   -1    0    0  501    0  0.00000000000E+00  0.00000000000E+00  0.89571470033E+03  0.89571470034E+03  0.50400001928E-02 0.  1.
       -1   -1    0    0    0  501  0.00000000000E+00  0.00000000000E+00 -0.79682566545E+03  0.79682566546E+03  0.50400001928E-02 0. -1.
    10030    2    1    2    0    0  0.00000000000E+00  0.00000000000E+00  0.98889034877E+02  0.16925403658E+04  0.16896490312E+04 0.  0.
        4    1    3    3  502    0  0.31358993382E+03 -0.78365840626E+03  0.13778745580E+02  0.84418636037E+03  0.12699999809E+01 0.  1.
       -4    1    3    3    0  502 -0.31358993382E+03  0.78365840626E+03  0.85110289296E+02  0.84835400544E+03  0.12699999809E+01 0. -1.
</event>
<event>
 5   0  0.1255362E-04  0.1704297E+04  0.7818609E-02  0.8758918E-01
       -2   -1    0    0    0  501  0.00000000000E+00  0.00000000000E+00  0.53833792730E+03  0.53833792730E+03  0.25500000920E-02 0.  1.
        2   -1    0    0  501    0  0.00000000000E+00  0.00000000000E+00 -0.13488867101E+04  0.13488867101E+04  0.25500000920E-02 0. -1.
    10030    2    1    2    0    0  0.00000000000E+00  0.00000000000E+00 -0.81054878285E+03  0.18872246375E+04  0.17042967766E+04 0.  0.
        1    1    3    3  502    0 -0.16576250329E+03  0.43452873723E+03 -0.11959634675E+04  0.12832073280E+04  0.50400001928E-02 0. -1.
       -1    1    3    3    0  502  0.16576250329E+03 -0.43452873723E+03  0.38541468465E+03  0.60401730947E+03  0.50400001928E-02 0.  1.
</event>
<event>
 5   0  0.6539134E-05  0.1702980E+04  0.7818609E-02  0.8759667E-01
        1   -1    0    0  501    0  0.00000000000E+00  0.00000000000E+00  0.14525428836E+04  0.14525428836E+04  0.50400001928E-02 0. -1.
       -1   -1    0    0    0  501  0.00000000000E+00  0.00000000000E+00 -0.49914887310E+03  0.49914887313E+03  0.50400001928E-02 0.  1.
    10030    2    1    2    0    0  0.00000000000E+00  0.00000000000E+00  0.95339401050E+03  0.19516917567E+04  0.17029799101E+04 0.  0.
        2    1    3    3  502    0  0.18464570148E+03 -0.26469458068E+03  0.13797324552E+04  0.14169752659E+04  0.25500000920E-02 0. -1.
       -2    1    3    3    0  502 -0.18464570148E+03  0.26469458068E+03 -0.42633844473E+03  0.53471649084E+03  0.25500000920E-02 0.  1.
</event>
<event>
 5   0  0.6564887E-05  0.1675825E+04  0.7818609E-02  0.8775274E-01
        1   -1    0    0  501    0  0.00000000000E+00  0.00000000000E+00  0.83128536874E+03  0.83128536876E+03  0.50400001928E-02 0.  1.
       -1   -1    0    0    0  501  0.00000000000E+00  0.00000000000E+00 -0.84459199450E+03  0.84459199451E+03  0.50400001928E-02 0. -1.
    10030    2    1    2    0    0  0.00000000000E+00  0.00000000000E+00 -0.13306625753E+02  0.16758773633E+04  0.16758245345E+04 0.  0.
        4    1    3    3  502    0 -0.14902125814E+03  0.62647151759E+03 -0.54278723144E+03  0.84219563597E+03  0.12699999809E+01 0. -1.
       -4    1    3    3    0  502  0.14902125814E+03 -0.62647151759E+03  0.52948060569E+03  0.83368172730E+03  0.12699999809E+01 0.  1.
</event>
<event>
 5   0  0.1393870E-04  0.1676813E+04  0.7818609E-02  0.8774701E-01
       -2   -1    0    0    0  501  0.00000000000E+00  0.00000000000E+00  0.44997960883E+03  0.44997960884E+03  0.25500000920E-02 0. -1.
        2   -1    0    0  501    0  0.00000000000E+00  0.00000000000E+00 -0.15621267797E+04  0.15621267797E+04  0.25500000920E-02 0.  1.
    10030    2    1    2    0    0  0.00000000000E+00  0.00000000000E+00 -0.11121471709E+04  0.20121063885E+04  0.16768126875E+04 0.  0.
        3    1    3    3  502    0  0.44454609240E+03 -0.67048275229E+03 -0.27272864912E+03  0.84944056628E+03  0.10100000352E+00 0. -1.
       -3    1    3    3    0  502 -0.44454609240E+03  0.67048275229E+03 -0.83941852175E+03  0.11626658223E+04  0.10100000352E+00 0.  1.
</event>
<event>
 5   0  0.6615842E-05  0.1653346E+04  0.7818609E-02  0.8788430E-01
        1   -1    0    0  501    0  0.00000000000E+00  0.00000000000E+00  0.13075224171E+04  0.13075224172E+04  0.50400001928E-02 0. -1.
       -1   -1    0    0    0  501  0.00000000000E+00  0.00000000000E+00 -0.52265879468E+03  0.52265879470E+03  0.50400001928E-02 0.  1.
    10030    2    1    2    0    0  0.00000000000E+00  0.00000000000E+00  0.78486362246E+03  0.18301812119E+04  0.16533458085E+04 0.  0.
        3    1    3    3  502    0  0.38095639666E+03 -0.16234787659E+03 -0.39956682039E+03  0.57544614287E+03  0.10100000352E+00 0.  1.
       -3    1    3    3    0  502 -0.38095639666E+03  0.16234787659E+03  0.11844304429E+04  0.12547350690E+04  0.10100000352E+00 0. -1.
</event>
<event>
 5   0  0.1269175E-04  0.1717037E+04  0.7818609E-02  0.8751707E-01
        2   -1    0    0  501    0  0.00000000000E+00  0.00000000000E+00  0.82965285120E+03  0.82965285121E+03  0.25500000920E-02 0. -1.
       -2   -1    0    0    0  501  0.00000000000E+00  0.00000000000E+00 -0.88838864137E+03  0.88838864138E+03  0.25500000920E-02 0.  1.
    10030    2    1    2    0    0  0.00000000000E+00  0.00000000000E+00 -0.58735790168E+02  0.17180414926E+04  0.17170371799E+04 0.  0.
        2    1    3    3  502    0 -0.31880993685E+03  0.24276692318E+03 -0.78907388309E+03  0.88499330382E+03  0.25500000920E-02 0.  1.
       -2    1    3    3    0  502  0.31880993685E+03 -0.24276692318E+03  0.73033809292E+03  0.83304818877E+03  0.25500000920E-02 0. -1.
</event>
<event>
 5   0  0.1393870E-04  0.1694535E+04  0.7818609E-02  0.8764487E-01
       -2   -1    0    0    0  501  0.00000000000E+00  0.00000000000E+00  0.14081250384E+04  0.14081250384E+04  0.25500000920E-02 0.  1.
        2   -1    0    0  501    0  0.00000000000E+00  0.00000000000E+00 -0.50980008259E+03  0.50980008260E+03  0.25500000920E-02 0. -1.
    10030    2    1    2    0    0  0.00000000000E+00  0.00000000000E+00  0.89832495577E+03  0.19179251210E+04  0.16945350523E+04 0.  0.
        3    1    3    3  502    0 -0.33334698832E+02 -0.23451868457E+03 -0.47155997382E+03  0.52771112805E+03  0.10100000352E+00 0. -1.
       -3    1    3    3    0  502  0.33334698832E+02  0.23451868457E+03  0.13698849296E+04  0.13902139929E+04  0.10100000352E+00 0.  1.
</event>
<event>
 5   0  0.1269175E-04  0.1698382E+04  0.7818609E-02  0.8762288E-01
        2   -1    0    0  501    0  0.00000000000E+00  0.00000000000E+00  0.19118871674E+04  0.19118871674E+04  0.25500000920E-02 0. -1.
       -2   -1    0    0    0  501  0.00000000000E+00  0.00000000000E+00 -0.37717983199E+03  0.37717983200E+03  0.25500000920E-02 0.  1.
    10030    2    1    2    0    0  0.00000000000E+00  0.00000000000E+00  0.15347073354E+04  0.22890669994E+04  0.16983819130E+04 0.  0.
        2    1    3    3  502    0 -0.47759344781E+03  0.45488476170E+03  0.46429826262E+02  0.66118936515E+03  0.25500000920E-02 0.  1.
       -2    1    3    3    0  502  0.47759344781E+03 -0.45488476170E+03  0.14882775091E+04  0.16278776342E+04  0.25500000920E-02 0. -1.
</event>
<event>
 5   0  0.1269175E-04  0.1702790E+04  0.7818609E-02  0.8759775E-01
       -2   -1    0    0    0  501  0.00000000000E+00  0.00000000000E+00  0.10815121939E+04  0.10815121939E+04  0.25500000920E-02 0.  1.
        2   -1    0    0  501    0  0.00000000000E+00  0.00000000000E+00 -0.67024049864E+03  0.67024049865E+03  0.25500000920E-02 0. -1.
    10030    2    1    2    0    0  0.00000000000E+00  0.00000000000E+00  0.41127169522E+03  0.17517526925E+04  0.17027897957E+04 0.  0.
        2    1    3    3  502    0  0.53039789950E+03 -0.66557545169E+03  0.18127676513E+03  0.87015738764E+03  0.25500000920E-02 0. -1.
       -2    1    3    3    0  502 -0.53039789950E+03  0.66557545169E+03  0.22999493009E+03  0.88159530487E+03  0.25500000920E-02 0.  1.
</event>
<event>
 5   0  0.6834837E-05  0.1698809E+04  0.7818609E-02  0.8762044E-01
       -1   -1    0    0    0  501  0.00000000000E+00  0.00000000000E+00  0.57746749189E+03  0.57746749191E+03  0.50400001928E-02 0.  1.
        1   -1    0    0  501    0  0.00000000000E+00  0.00000000000E+00 -0.12494006635E+04  0.12494006635E+04  0.50400001928E-02 0. -1.
    10030    2    1    2    0    0  0.00000000000E+00  0.00000000000E+00 -0.67193317158E+03  0.18268681554E+04  0.16988093095E+04 0.  0.
        5    1    3    3  502    0  0.51507449481E+03  0.67006541960E+03 -0.42706844962E+03  0.94694189495E+03  0.46999998093E+01 0. -1.
       -5    1    3    3    0  502 -0.51507449481E+03 -0.67006541960E+03 -0.24486472196E+03  0.87992626044E+03  0.46999998093E+01 0.  1.
</event>
<event>
 5   0  0.6564887E-05  0.1696213E+04  0.7818609E-02  0.8763527E-01
       -1   -1    0    0    0  501  0.00000000000E+00  0.00000000000E+00  0.21527857843E+04  0.21527857843E+04  0.50400001928E-02 0. -1.
        1   -1    0    0  501    0  0.00000000000E+00  0.00000000000E+00 -0.33411794429E+03  0.33411794433E+03  0.50400001928E-02 0.  1.
    10030    2    1    2    0    0  0.00000000000E+00  0.00000000000E+00  0.18186678400E+04  0.24869037286E+04  0.16962126763E+04 0.  0.
        4    1    3    3  502    0  0.19105459847E+03 -0.54617267680E+03  0.23016118794E+00  0.57862606090E+03  0.12699999809E+01 0.  1.
       -4    1    3    3    0  502 -0.19105459847E+03  0.54617267680E+03  0.18184376788E+04  0.19082776677E+04  0.12699999809E+01 0. -1.
</event>
<event>
 5   0  0.1269175E-04  0.1711060E+04  0.7818609E-02  0.8755082E-01
       -2   -1    0    0    0  501  0.00000000000E+00  0.00000000000E+00  0.80190179759E+03  0.80190179759E+03  0.25500000920E-02 0.  1.
        2   -1    0    0  501    0  0.00000000000E+00  0.00000000000E+00 -0.91274450294E+03  0.91274450295E+03  0.25500000920E-02 0. -1.
    10030    2    1    2    0    0  0.00000000000E+00  0.00000000000E+00 -0.11084270536E+03  0.17146463005E+04  0.17110598559E+04 0.  0.
        2    1    3    3  502    0 -0.51550527843E+03  0.27678420540E+03  0.57004736215E+03  0.81688994580E+03  0.25500000920E-02 0.  1.
       -2    1    3    3    0  502  0.51550527843E+03 -0.27678420540E+03 -0.68089006750E+03  0.89775635474E+03  0.25500000920E-02 0. -1.
</event>
<event>
 5   0  0.1269175E-04  0.1710002E+04  0.7818609E-02  0.8755680E-01
        2   -1    0    0  501    0  0.00000000000E+00  0.00000000000E+00  0.11450821711E+04  0.11450821711E+04  0.25500000920E-02 0.  1.
       -2   -1    0    0    0  501  0.00000000000E+00  0.00000000000E+00 -0.63840544087E+03  0.63840544088E+03  0.25500000920E-02 0. -1.
    10030    2    1    2    0    0  0.00000000000E+00  0.00000000000E+00  0.50667673027E+03  0.17834876120E+04  0.17100019746E+04 0.  0.
        2    1    3    3  502    0  0.72350767815E+03 -0.39224337783E+03  0.49504848697E+03  0.96041201171E+03  0.25500000920E-02 0.  1.
       -2    1    3    3    0  502 -0.72350767815E+03  0.39224337783E+03  0.11628243301E+02  0.82307560032E+03  0.25500000920E-02 0. -1.
</event>
<event>
 5   0  0.4720875E-05  0.1702586E+04  0.7818609E-02  0.8759891E-01
       -3   -1    0    0    0  501  0.00000000000E+00  0.00000000000E+00  0.52801404680E+03  0.52801405646E+03  0.10100000352E+00 0. -1.
        3   -1    0    0  501    0  0.00000000000E+00  0.00000000000E+00 -0.13725003534E+04  0.13725003571E+04  0.10100000352E+00 0.  1.
    10030    2    1    2    0    0  0.00000000000E+00  0.00000000000E+00 -0.84448630660E+03  0.19005144136E+04  0.17025856555E+04 0.  0.
        5    1    3    3  502    0  0.36522098189E+03  0.87401082426E+01 -0.12805346009E+04  0.13316357269E+04  0.46999998093E+01 0.  1.
       -5    1    3    3    0  502 -0.36522098189E+03 -0.87401082426E+01  0.43604829433E+03  0.56887868662E+03  0.46999998093E+01 0. -1.
</event>
<event>
 5   0  0.1393870E-04  0.1680947E+04  0.7818609E-02  0.8772306E-01
        2   -1    0    0  501    0  0.00000000000E+00  0.00000000000E+00  0.82463805564E+03  0.82463805565E+03  0.25500000920E-02 0.  1.
       -2   -1    0    0    0  501  0.00000000000E+00  0.00000000000E+00 -0.85661256718E+03  0.85661256719E+03  0.25500000920E-02 0. -1.
    10030    2    1    2    0    0  0.00000000000E+00  0.00000000000E+00 -0.31974511539E+02  0.16812506228E+04  0.16809465451E+04 0.  0.
        3    1    3    3  502    0  0.39118947609E+03  0.58039449536E+03 -0.48137598961E+03  0.84947620922E+03  0.10100000352E+00 0.  1.
       -3    1    3    3    0  502 -0.39118947609E+03 -0.58039449536E+03  0.44940147807E+03  0.83177441362E+03  0.10100000352E+00 0. -1.
</event>
<event>
 5   0  0.6539134E-05  0.1702712E+04  0.7818609E-02  0.8759819E-01
        1   -1    0    0  501    0  0.00000000000E+00  0.00000000000E+00  0.64660614032E+03  0.64660614034E+03  0.50400001928E-02 0.  1.
       -1   -1    0    0    0  501  0.00000000000E+00  0.00000000000E+00 -0.11209408407E+04  0.11209408407E+04  0.50400001928E-02 0. -1.
    10030    2    1    2    0    0  0.00000000000E+00  0.00000000000E+00 -0.47433470035E+03  0.17675469810E+04  0.17027122253E+04 0.  0.
        2    1    3    3  502    0  0.43581974911E+03  0.81110830224E+02  0.51734380381E+03  0.68129467327E+03  0.25500000920E-02 0.  1.
       -2    1    3    3    0  502 -0.43581974911E+03 -0.81110830224E+02 -0.99167850415E+03  0.10862523077E+04  0.25500000920E-02 0. -1.
</event>
<event>
 5   0  0.6601906E-05  0.1700470E+04  0.7818609E-02  0.8761096E-01
        1   -1    0    0  501    0  0.00000000000E+00  0.00000000000E+00  0.59113515077E+03  0.59113515079E+03  0.50400001928E-02 0. -1.
       -1   -1    0    0    0  501  0.00000000000E+00  0.00000000000E+00 -0.12229011776E+04  0.12229011777E+04  0.50400001928E-02 0.  1.
    10030    2    1    2    0    0  0.00000000000E+00  0.00000000000E+00 -0.63176602687E+03  0.18140363285E+04  0.17004703726E+04 0.  0.
        1    1    3    3  502    0 -0.42632481153E+03 -0.53240158088E+03  0.22565680934E+03  0.71841859934E+03  0.50400001928E-02 0. -1.
       -1    1    3    3    0  502  0.42632481153E+03  0.53240158088E+03 -0.85742283622E+03  0.10956177291E+04  0.50400001928E-02 0.  1.
</event>
<event>
 5   0  0.1269175E-04  0.1720357E+04  0.7818609E-02  0.8749838E-01
        2   -1    0    0  501    0  0.00000000000E+00  0.00000000000E+00  0.13487879696E+04  0.13487879696E+04  0.25500000920E-02 0.  1.
       -2   -1    0    0    0  501  0.00000000000E+00  0.00000000000E+00 -0.54857185643E+03  0.54857185644E+03  0.25500000920E-02 0. -1.
    10030    2    1    2    0    0  0.00000000000E+00  0.00000000000E+00  0.80021611313E+03  0.18973598260E+04  0.17203570797E+04 0.  0.
        2    1    3    3  502    0  0.10952629885E+03 -0.85022337427E+03  0.32187825129E+03  0.91568630270E+03  0.25500000920E-02 0. -1.
       -2    1    3    3    0  502 -0.10952629885E+03  0.85022337427E+03  0.47833786185E+03  0.98167352331E+03  0.25500000920E-02 0.  1.
</event>
<event>
 5   0  0.1333546E-04  0.1697481E+04  0.7818609E-02  0.8762803E-01
       -2   -1    0    0    0  501  0.00000000000E+00  0.00000000000E+00  0.50867052297E+03  0.50867052297E+03  0.25500000920E-02 0.  1.
        2   -1    0    0  501    0  0.00000000000E+00  0.00000000000E+00 -0.14161623152E+04  0.14161623152E+04  0.25500000920E-02 0. -1.
    10030    2    1    2    0    0  0.00000000000E+00  0.00000000000E+00 -0.90749179224E+03  0.19248328382E+04  0.16974805159E+04 0.  0.
        5    1    3    3  502    0 -0.82781219906E+02  0.68796721489E+03 -0.10094739895E+04  0.12244229027E+04  0.46999998093E+01 0. -1.
       -5    1    3    3    0  502  0.82781219906E+02 -0.68796721489E+03  0.10198219730E+03  0.70040993547E+03  0.46999998093E+01 0.  1.
</event>
<event>
 5   0  0.6539134E-05  0.1699066E+04  0.7818609E-02  0.8761897E-01
       -1   -1    0    0    0  501  0.00000000000E+00  0.00000000000E+00  0.80071274939E+03  0.80071274941E+03  0.50400001928E-02 0.  1.
        1   -1    0    0  501    0  0.00000000000E+00  0.00000000000E+00 -0.90133021860E+03  0.90133021862E+03  0.50400001928E-02 0. -1.
    10030    2    1    2    0    0  0.00000000000E+00  0.00000000000E+00 -0.10061746921E+03  0.17020429680E+04  0.16990663289E+04 0.  0.
        2    1    3    3  502    0 -0.65300248706E+03  0.30313424411E+03  0.40148469309E+03  0.82431339723E+03  0.25500000920E-02 0.  1.
       -2    1    3    3    0  502  0.65300248706E+03 -0.30313424411E+03 -0.50210216230E+03  0.87772957080E+03  0.25500000920E-02 0. -1.
</event>
<event>
 5   0  0.6834837E-05  0.1680070E+04  0.7818609E-02  0.8772813E-01
        1   -1    0    0  501    0  0.00000000000E+00  0.00000000000E+00  0.16273094500E+04  0.16273094500E+04  0.50400001928E-02 0.  1.
       -1   -1    0    0    0  501  0.00000000000E+00  0.00000000000E+00 -0.43363545451E+03  0.43363545454E+03  0.50400001928E-02 0. -1.
    10030    2    1    2    0    0  0.00000000000E+00  0.00000000000E+00  0.11936739955E+04  0.20609449045E+04  0.16800703235E+04 0.  0.
        5    1    3    3  502    0 -0.45836804998E+03  0.30006223982E+03  0.13779852683E+04  0.14829039438E+04  0.46999998093E+01 0.  1.
       -5    1    3    3    0  502  0.45836804998E+03 -0.30006223982E+03 -0.18431127278E+03  0.57804096073E+03  0.46999998093E+01 0. -1.
</event>
<event>
 5   0  0.1285639E-04  0.1700542E+04  0.7818609E-02  0.8761055E-01
        2   -1    0    0  501    0  0.00000000000E+00  0.00000000000E+00  0.11656407285E+04  0.11656407285E+04  0.25500000920E-02 0.  1.
       -2   -1    0    0    0  501  0.00000000000E+00  0.00000000000E+00 -0.62022599114E+03  0.62022599115E+03  0.25500000920E-02 0. -1.
    10030    2    1    2    0    0  0.00000000000E+00  0.00000000000E+00  0.54541473733E+03  0.17858667196E+04  0.17005418856E+04 0.  0.
        4    1    3    3  502    0 -0.88024852723E+02  0.31155840132E+03 -0.55296139552E+03  0.64076901452E+03  0.12699999809E+01 0. -1.
       -4    1    3    3    0  502  0.88024852723E+02 -0.31155840132E+03  0.10983761328E+04  0.11450977051E+04  0.12699999809E+01 0.  1.
</event>
<event>
 5   0  0.6615842E-05  0.1698396E+04  0.7818609E-02  0.8762280E-01
        1   -1    0    0  501    0  0.00000000000E+00  0.00000000000E+00  0.92301090295E+03  0.92301090296E+03  0.50400001928E-02 0. -1.
       -1   -1    0    0    0  501  0.00000000000E+00  0.00000000000E+00 -0.78128812961E+03  0.78128812962E+03  0.50400001928E-02 0.  1.
    10030    2    1    2    0    0  0.00000000000E+00  0.00000000000E+00  0.14172277334E+03  0.17042990326E+04  0.16983962576E+04 0.  0.
        3    1    3    3  502    0  0.52542035286E+03 -0.20645609703E+03 -0.56573036068E+03  0.79921306195E+03  0.10100000352E+00 0.  1.
       -3    1    3    3    0  502 -0.52542035286E+03  0.20645609703E+03  0.70745313402E+03  0.90508597064E+03  0.10100000352E+00 0. -1.
</event>
<event>
 5   0  0.6539134E-05  0.1701146E+04  0.7818609E-02  0.8760711E-01
        1   -1    0    0  501    0  0.00000000000E+00  0.00000000000E+00  0.63538796986E+03  0.63538796988E+03  0.50400001928E-02 0.  1.
       -1   -1    0    0    0  501  0.00000000000E+00  0.00000000000E+00 -0.11386341940E+04  0.11386341940E+04  0.50400001928E-02 0. -1.
    10030    2    1    2    0    0  0.00000000000E+00  0.00000000000E+00 -0.50324622412E+03  0.17740221639E+04  0.17011460478E+04 0.  0.
        2    1    3    3  502    0 -0.74700968191E+03  0.28512729270E+03  0.50896374470E+02  0.80119378358E+03  0.25500000920E-02 0.  1.
       -2    1    3    3    0  502  0.74700968191E+03 -0.28512729270E+03 -0.55414259859E+03  0.97282838028E+03  0.25500000920E-02 0. -1.
</event>
<event>
 5   0  0.1269175E-04  0.1695559E+04  0.7818609E-02  0.8763901E-01
       -2   -1    0    0    0  501  0.00000000000E+00  0.00000000000E+00  0.28536705758E+03  0.28536705759E+03  0.25500000920E-02 0. -1.
        2   -1    0    0  501    0  0.00000000000E+00  0.00000000000E+00 -0.25186160535E+04  0.25186160535E+04  0.25500000920E-02 0.  1.
    10030    2    1    2    0    0  0.00000000000E+00  0.00000000000E+00 -0.22332489959E+04  0.28039831111E+04  0.16955589667E+04 0.  0.
        2    1    3    3  502    0 -0.41087995137E+03 -0.72904018353E+03 -0.13409958046E+04  0.15806934148E+04  0.25500000920E-02 0. -1.
       -2    1    3    3    0  502  0.41087995137E+03  0.72904018353E+03 -0.89225319133E+03  0.12232896963E+04  0.25500000920E-02 0.  1.
</event>
<event>
 5   0  0.1333546E-04  0.1717263E+04  0.7818609E-02  0.8751579E-01
       -2   -1    0    0    0  501  0.00000000000E+00  0.00000000000E+00  0.31500916267E+03  0.31500916268E+03  0.25500000920E-02 0. -1.
        2   -1    0    0  501    0  0.00000000000E+00  0.00000000000E+00 -0.23404016998E+04  0.23404016998E+04  0.25500000920E-02 0.  1.
    10030    2    1    2    0    0  0.00000000000E+00  0.00000000000E+00 -0.20253925371E+04  0.26554108624E+04  0.17172629149E+04 0.  0.
        5    1    3    3  502    0  0.26652961090E+03  0.43664065949E+03  0.53617878080E+02  0.51438318971E+03  0.46999998093E+01 0. -1.
       -5    1    3    3    0  502 -0.26652961090E+03 -0.43664065949E+03 -0.20790104152E+04  0.21410276727E+04  0.46999998093E+01 0.  1.
</event>
<event>
 5   0  0.6564887E-05  0.1699127E+04  0.7818609E-02  0.8761862E-01
       -1   -1    0    0    0  501  0.00000000000E+00  0.00000000000E+00  0.36579270193E+03  0.36579270196E+03  0.50400001928E-02 0. -1.
        1   -1    0    0  501    0  0.00000000000E+00  0.00000000000E+00 -0.19731353617E+04  0.19731353617E+04  0.50400001928E-02 0.  1.
    10030    2    1    2    0    0  0.00000000000E+00  0.00000000000E+00 -0.16073426598E+04  0.23389280637E+04  0.16991274411E+04 0.  0.
        4    1    3    3  502    0 -0.17530924980E+03 -0.81952163302E+03 -0.61190172994E+03  0.10376773969E+04  0.12699999809E+01 0.  1.
       -4    1    3    3    0  502  0.17530924980E+03  0.81952163302E+03 -0.99544092981E+03  0.13012506667E+04  0.12699999809E+01 0. -1.
</event>
<event>
 5   0  0.1333546E-04  0.1689779E+04  0.7818609E-02  0.8767215E-01
       -2   -1    0    0    0  501  0.00000000000E+00  0.00000000000E+00  0.73703731615E+03  0.73703731615E+03  0.25500000920E-02 0. -1.
        2   -1    0    0  501    0  0.00000000000E+00  0.00000000000E+00 -0.96852401913E+03  0.96852401913E+03  0.25500000920E-02 0.  1.
    10030    2    1    2    0    0  0.00000000000E+00  0.00000000000E+00 -0.23148670298E+03  0.17055613353E+04  0.16897790905E+04 0.  0.
        5    1    3    3  502    0  0.65224145833E+03 -0.20818262077E+03 -0.61539952659E+03  0.92059632352E+03  0.46999998093E+01 0.  1.
       -5    1    3    3    0  502 -0.65224145833E+03  0.20818262077E+03  0.38391282360E+03  0.78496501176E+03  0.46999998093E+01 0. -1.
</event>
<event>
 5   0  0.6615842E-05  0.1651931E+04  0.7818609E-02  0.8789265E-01
        1   -1    0    0  501    0  0.00000000000E+00  0.00000000000E+00  0.18574413019E+04  0.18574413019E+04  0.50400001928E-02 0. -1.
       -1   -1    0    0    0  501  0.00000000000E+00  0.00000000000E+00 -0.36728975856E+03  0.36728975859E+03  0.50400001928E-02 0.  1.
    10030    2    1    2    0    0  0.00000000000E+00  0.00000000000E+00  0.14901515433E+04  0.22247310605E+04  0.16519311939E+04 0.  0.
        3    1    3    3  502    0  0.70458056230E+01  0.44234501544E+03 -0.19427363502E+03  0.48317803295E+03  0.10100000352E+00 0.  1.
       -3    1    3    3    0  502 -0.70458056230E+01 -0.44234501544E+03  0.16844251784E+04  0.17415530275E+04  0.10100000352E+00 0. -1.
</event>
<event>
 5   0  0.1269175E-04  0.1699641E+04  0.7818609E-02  0.8761569E-01
       -2   -1    0    0    0  501  0.00000000000E+00  0.00000000000E+00  0.65534451663E+03  0.65534451663E+03  0.25500000920E-02 0.  1.
        2   -1    0    0  501    0  0.00000000000E+00  0.00000000000E+00 -0.11020081222E+04  0.11020081222E+04  0.25500000920E-02 0. -1.
    10030    2    1    2    0    0  0.00000000000E+00  0.00000000000E+00 -0.44666360560E+03  0.17573526389E+04  0.16996411153E+04 0.  0.
        2    1    3    3  502    0  0.49440290434E+03 -0.29163088036E+03  0.42461428790E+03  0.71398886245E+03  0.25500000920E-02 0.  1.
       -2    1    3    3    0  502 -0.49440290434E+03  0.29163088036E+03 -0.87127789350E+03  0.10433637764E+04  0.25500000920E-02 0. -1.
</event>
<event>
 5   0  0.1393870E-04  0.1692039E+04  0.7818609E-02  0.8765918E-01
        2   -1    0    0  501    0  0.00000000000E+00  0.00000000000E+00  0.78227714713E+03  0.78227714714E+03  0.25500000920E-02 0.  1.
       -2   -1    0    0    0  501  0.00000000000E+00  0.00000000000E+00 -0.91495554534E+03  0.91495554534E+03  0.25500000920E-02 0. -1.
    10030    2    1    2    0    0  0.00000000000E+00  0.00000000000E+00 -0.13267839820E+03  0.16972326925E+04  0.16920387865E+04 0.  0.
        3    1    3    3  502    0  0.64071088794E+03 -0.11496375051E+03 -0.60838830858E+03  0.89099015150E+03  0.10100000352E+00 0. -1.
       -3    1    3    3    0  502 -0.64071088794E+03  0.11496375051E+03  0.47570991038E+03  0.80624254098E+03  0.10100000352E+00 0.  1.
</event>
<event>
 5   0  0.1255362E-04  0.1693048E+04  0.7818609E-02  0.8765339E-01
       -2   -1    0    0    0  501  0.00000000000E+00  0.00000000000E+00  0.12397960259E+04  0.12397960259E+04  0.25500000920E-02 0. -1.
        2   -1    0    0  501    0  0.00000000000E+00  0.00000000000E+00 -0.57800046366E+03  0.57800046367E+03  0.25500000920E-02 0.  1.
    10030    2    1    2    0    0  0.00000000000E+00  0.00000000000E+00  0.66179556220E+03  0.18177964895E+04  0.16930477581E+04 0.  0.
        1    1    3    3  502    0  0.40373975454E+03 -0.18585825641E+03  0.11044366727E+04  0.11905164614E+04  0.50400001928E-02 0. -1.
       -1    1    3    3    0  502 -0.40373975454E+03  0.18585825641E+03 -0.44264111053E+03  0.62728002809E+03  0.50400001928E-02 0.  1.
</event>
<event>
 5   0  0.6601906E-05  0.1704669E+04  0.7818609E-02  0.8758706E-01
       -1   -1    0    0    0  501  0.00000000000E+00  0.00000000000E+00  0.64153779400E+03  0.64153779402E+03  0.50400001928E-02 0. -1.
        1   -1    0    0  501    0  0.00000000000E+00  0.00000000000E+00 -0.11323952201E+04  0.11323952201E+04  0.50400001928E-02 0.  1.
    10030    2    1    2    0    0  0.00000000000E+00  0.00000000000E+00 -0.49085742611E+03  0.17739330141E+04  0.17046692717E+04 0.  0.
        1    1    3    3  502    0 -0.43197308023E+03  0.41980087408E+03  0.38209970108E+03  0.71332580039E+03  0.50400001928E-02 0. -1.
       -1    1    3    3    0  502  0.43197308023E+03 -0.41980087408E+03 -0.87295712719E+03  0.10606072137E+04  0.50400001928E-02 0.  1.
</event>
<event>
 5   0  0.1393870E-04  0.1702813E+04  0.7818609E-02  0.8759762E-01
        2   -1    0    0  501    0  0.00000000000E+00  0.00000000000E+00  0.89292259943E+03  0.89292259943E+03  0.25500000920E-02 0.  1.
       -2   -1    0    0    0  501  0.00000000000E+00  0.00000000000E+00 -0.81182069825E+03  0.81182069825E+03  0.25500000920E-02 0. -1.
    10030    2    1    2    0    0  0.00000000000E+00  0.00000000000E+00  0.81101901182E+02  0.17047432977E+04  0.17028130234E+04 0.  0.
        3    1    3    3  502    0  0.73816953176E+03  0.42426200289E+03  0.41282013579E+02  0.85240642862E+03  0.10100000352E+00 0. -1.
       -3    1    3    3    0  502 -0.73816953176E+03 -0.42426200289E+03  0.39819887603E+02  0.85233686906E+03  0.10100000352E+00 0.  1.
</event>
<event>
 5   0  0.6564887E-05  0.1699250E+04  0.7818609E-02  0.8761792E-01
       -1   -1    0    0    0  501  0.00000000000E+00  0.00000000000E+00  0.43366575561E+03  0.43366575564E+03  0.50400001928E-02 0.  1.
        1   -1    0    0  501    0  0.00000000000E+00  0.00000000000E+00 -0.16645597239E+04  0.16645597239E+04  0.50400001928E-02 0. -1.
    10030    2    1    2    0    0  0.00000000000E+00  0.00000000000E+00 -0.12308939683E+04  0.20982254796E+04  0.16992498939E+04 0.  0.
        4    1    3    3  502    0  0.28114155938E+03  0.69004061406E+03 -0.11195464208E+04  0.13448354646E+04  0.12699999809E+01 0. -1.
       -4    1    3    3    0  502 -0.28114155938E+03 -0.69004061406E+03 -0.11134754746E+03  0.75339001499E+03  0.12699999809E+01 0.  1.
</event>
<event>
 5   0  0.1333546E-04  0.1691549E+04  0.7818609E-02  0.8766199E-01
       -2   -1    0    0    0  501  0.00000000000E+00  0.00000000000E+00  0.49264721677E+03  0.49264721678E+03  0.25500000920E-02 0. -1.
        2   -1    0    0  501    0  0.00000000000E+00  0.00000000000E+00 -0.14520222747E+04  0.14520222747E+04  0.25500000920E-02 0.  1.
    10030    2    1    2    0    0  0.00000000000E+00  0.00000000000E+00 -0.95937505791E+03  0.19446694915E+04  0.16915492690E+04 0.  0.
        5    1    3    3  502    0  0.85119703521E+01 -0.75790837988E+03 -0.91109307768E+03  0.11851625425E+04  0.46999998093E+01 0. -1.
       -5    1    3    3    0  502 -0.85119703521E+01  0.75790837988E+03 -0.48281980228E+02  0.75950694897E+03  0.46999998093E+01 0.  1.
</event>
<event>
 5   0  0.6564887E-05  0.1679692E+04  0.7818609E-02  0.8773032E-01
       -1   -1    0    0    0  501  0.00000000000E+00  0.00000000000E+00  0.38969425730E+03  0.38969425733E+03  0.50400001928E-02 0. -1.
        1   -1    0    0  501    0  0.00000000000E+00  0.00000000000E+00 -0.18099861515E+04  0.18099861515E+04  0.50400001928E-02 0.  1.
    10030    2    1    2    0    0  0.00000000000E+00  0.00000000000E+00 -0.14202918942E+04  0.21996804088E+04  0.16796918873E+04 0.  0.
        4    1    3    3  502    0 -0.59096526154E+03  0.20779834493E+02  0.70856275226E+02  0.59556189141E+03  0.12699999809E+01 0. -1.
       -4    1    3    3    0  502  0.59096526154E+03 -0.20779834493E+02 -0.14911481694E+04  0.16041185174E+04  0.12699999809E+01 0.  1.
</event>
<event>
 5   0  0.6615842E-05  0.1700344E+04  0.7818609E-02  0.8761168E-01
        1   -1    0    0  501    0  0.00000000000E+00  0.00000000000E+00  0.87585872269E+03  0.87585872270E+03  0.50400001928E-02 0.  1.
       -1   -1    0    0    0  501  0.00000000000E+00  0.00000000000E+00 -0.82523872487E+03  0.82523872488E+03  0.50400001928E-02 0. -1.
    10030    2    1    2    0    0  0.00000000000E+00  0.00000000000E+00  0.50619997820E+02  0.17010974476E+04  0.17003441246E+04 0.  0.
        3    1    3    3  502    0  0.27459123558E+03  0.62863503873E+03 -0.47711780224E+03  0.83559784944E+03  0.10100000352E+00 0. -1.
       -3    1    3    3    0  502 -0.27459123558E+03 -0.62863503873E+03  0.52773780006E+03  0.86549959814E+03  0.10100000352E+00 0.  1.
</event>
<event>
 5   0  0.1255362E-04  0.1695039E+04  0.7818609E-02  0.8764199E-01
       -2   -1    0    0    0  501  0.00000000000E+00  0.00000000000E+00  0.34014854941E+03  0.34014854942E+03  0.25500000920E-02 0. -1.
        2   -1    0    0  501    0  0.00000000000E+00  0.00000000000E+00 -0.21116925940E+04  0.21116925940E+04  0.25500000920E-02 0.  1.
    10030    2    1    2    0    0  0.00000000000E+00  0.00000000000E+00 -0.17715440446E+04  0.24518411435E+04  0.16950388464E+04 0.  0.
        1    1    3    3  502    0  0.52922510884E+03 -0.39208722562E+03 -0.11427068486E+03  0.66848290761E+03  0.50400001928E-02 0. -1.
       -1    1    3    3    0  502 -0.52922510884E+03  0.39208722562E+03 -0.16572733598E+04  0.17833582358E+04  0.50400001928E-02 0.  1.
</event>
<event>
 5   0  0.1285639E-04  0.1702637E+04  0.7818609E-02  0.8759862E-01
       -2   -1    0    0    0  501  0.00000000000E+00  0.00000000000E+00  0.32672881910E+03  0.32672881911E+03  0.25500000920E-02 0.  1.
        2   -1    0    0  501    0  0.00000000000E+00  0.00000000000E+00 -0.22181804595E+04  0.22181804595E+04  0.25500000920E-02 0. -1.
    10030    2    1    2    0    0  0.00000000000E+00  0.00000000000E+00 -0.18914516404E+04  0.25449092786E+04  0.17026373449E+04 0.  0.
        4    1    3    3  502    0  0.53793843219E+03  0.60164580682E+03 -0.13506353957E+04  0.15733953790E+04  0.12699999809E+01 0. -1.
       -4    1    3    3    0  502 -0.53793843219E+03 -0.60164580682E+03 -0.54081624473E+03  0.97151389962E+03  0.12699999809E+01 0.  1.
</event>
<event>
 5   0  0.1393870E-04  0.1698140E+04  0.7818609E-02  0.8762426E-01
       -2   -1    0    0    0  501  0.00000000000E+00  0.00000000000E+00  0.23119629272E+03  0.23119629274E+03  0.25500000920E-02 0. -1.
        2   -1    0    0  501    0  0.00000000000E+00  0.00000000000E+00 -0.31182142888E+04  0.31182142888E+04  0.25500000920E-02 0.  1.
    10030    2    1    2    0    0  0.00000000000E+00  0.00000000000E+00 -0.28870179960E+04  0.33494105815E+04  0.16981396686E+04 0.  0.
        3    1    3    3  502    0  0.50038784862E+03 -0.15916904483E+03 -0.12746323096E+03  0.54034217800E+03  0.10100000352E+00 0. -1.
       -3    1    3    3    0  502 -0.50038784862E+03  0.15916904483E+03 -0.27595547651E+04  0.28090684035E+04  0.10100000352E+00 0.  1.
</event>
<event>
 5   0  0.6564887E-05  0.1672849E+04  0.7818609E-02  0.8777003E-01
       -1   -1    0    0    0  501  0.00000000000E+00  0.00000000000E+00  0.68026377767E+03  0.68026377769E+03  0.50400001928E-02 0. -1.
        1   -1    0    0  501    0  0.00000000000E+00  0.00000000000E+00 -0.10284338592E+04  0.10284338592E+04  0.50400001928E-02 0.  1.
    10030    2    1    2    0    0  0.00000000000E+00  0.00000000000E+00 -0.34817008152E+03  0.17086976369E+04  0.16728494280E+04 0.  0.
        4    1    3    3  502    0  0.42476745905E+03 -0.52880542106E+03 -0.67400366046E+03  0.95621394825E+03  0.12699999809E+01 0.  1.
       -4    1    3    3    0  502 -0.42476745905E+03  0.52880542106E+03  0.32583357894E+03  0.75248368864E+03  0.12699999809E+01 0. -1.
</event>
<event>
 5   0  0.6539134E-05  0.1702627E+04  0.7818609E-02  0.8759868E-01
        1   -1    0    0  501    0  0.00000000000E+00  0.00000000000E+00  0.92963415832E+03  0.92963415834E+03  0.50400001928E-02 0. -1.
       -1   -1    0    0    0  501  0.00000000000E+00  0.00000000000E+00 -0.77959094634E+03  0.77959094635E+03  0.50400001928E-02 0.  1.
    10030    2    1    2    0    0  0.00000000000E+00  0.00000000000E+00  0.15004321198E+03  0.17092251047E+04  0.17026266452E+04 0.  0.
        2    1    3    3  502    0  0.41877458318E+03  0.73666722617E+03  0.15709184541E+03  0.86181703483E+03  0.25500000920E-02 0.  1.
       -2    1    3    3    0  502 -0.41877458318E+03 -0.73666722617E+03 -0.70486334249E+01  0.84740806986E+03  0.25500000920E-02 0. -1.
</event>
<event>
 5   0  0.1333546E-04  0.1677756E+04  0.7818609E-02  0.8774153E-01
        2   -1    0    0  501    0  0.00000000000E+00  0.00000000000E+00  0.57064425267E+03  0.57064425268E+03  0.25500000920E-02 0. -1.
       -2   -1    0    0    0  501  0.00000000000E+00  0.00000000000E+00 -0.12331968474E+04  0.12331968474E+04  0.25500000920E-02 0.  1.
    10030    2    1    2    0    0  0.00000000000E+00  0.00000000000E+00 -0.66255259475E+03  0.18038411001E+04  0.16777564703E+04 0.  0.
        5    1    3    3  502    0 -0.21075146894E+02  0.34437356029E+03  0.49081498181E+03  0.59996562169E+03  0.46999998093E+01 0. -1.
       -5    1    3    3    0  502  0.21075146894E+02 -0.34437356029E+03 -0.11533675766E+04  0.12038754784E+04  0.46999998093E+01 0.  1.
</event>
<event>
 5   0  0.6601906E-05  0.1701001E+04  0.7818609E-02  0.8760794E-01
       -1   -1    0    0    0  501  0.00000000000E+00  0.00000000000E+00  0.42356678292E+03  0.42356678295E+03  0.50400001928E-02 0.  1.
        1   -1    0    0  501    0  0.00000000000E+00  0.00000000000E+00 -0.17077612800E+04  0.17077612800E+04  0.50400001928E-02 0. -1.
    10030    2    1    2    0    0  0.00000000000E+00  0.00000000000E+00 -0.12841944971E+04  0.21313280629E+04  0.17010008247E+04 0.  0.
        1    1    3    3  502    0  0.23217556609E+03  0.71422615334E+03 -0.11422351094E+04  0.13670133638E+04  0.50400001928E-02 0.  1.
       -1    1    3    3    0  502 -0.23217556609E+03 -0.71422615334E+03 -0.14195938771E+03  0.76431469919E+03  0.50400001928E-02 0. -1.
</event>
<event>
 5   0  0.1393870E-04  0.1799829E+04  0.7818609E-02  0.8706391E-01
       -2   -1    0    0    0  501  0.00000000000E+00  0.00000000000E+00  0.33922388092E+03  0.33922388093E+03  0.25500000920E-02 0.  1.
        2   -1    0    0  501    0  0.00000000000E+00  0.00000000000E+00 -0.23873491189E+04  0.23873491189E+04  0.25500000920E-02 0. -1.
    10030    2    1    2    0    0  0.00000000000E+00  0.00000000000E+00 -0.20481252380E+04  0.27265729999E+04  0.17998286955E+04 0.  0.
        3    1    3    3  502    0  0.10503656768E+03  0.55248664048E+01 -0.23780052443E+04  0.23803302621E+04  0.10100000352E+00 0. -1.
       -3    1    3    3    0  502 -0.10503656768E+03 -0.55248664048E+01  0.32988000627E+03  0.34624273774E+03  0.10100000352E+00 0.  1.
</event>
<event>
 5   0  0.6539134E-05  0.1697469E+04  0.7818609E-02  0.8762809E-01
        1   -1    0    0  501    0  0.00000000000E+00  0.00000000000E+00  0.51812752837E+03  0.51812752840E+03  0.50400001928E-02 0.  1.
       -1   -1    0    0    0  501  0.00000000000E+00  0.00000000000E+00 -0.13902952147E+04  0.13902952147E+04  0.50400001928E-02 0. -1.
    10030    2    1    2    0    0  0.00000000000E+00  0.00000000000E+00 -0.87216768632E+03  0.19084227431E+04  0.16974689668E+04 0.  0.
        2    1    3    3  502    0 -0.32219967540E+03  0.35777415506E+03  0.34973183873E+03  0.59508599033E+03  0.25500000920E-02 0.  1.
       -2    1    3    3    0  502  0.32219967540E+03 -0.35777415506E+03 -0.12218995251E+04  0.13133367528E+04  0.25500000920E-02 0. -1.
</event>
<event>
 5   0  0.6564887E-05  0.1706222E+04  0.7818609E-02  0.8757824E-01
       -1   -1    0    0    0  501  0.00000000000E+00  0.00000000000E+00  0.85663591625E+03  0.85663591626E+03  0.50400001928E-02 0. -1.
        1   -1    0    0  501    0  0.00000000000E+00  0.00000000000E+00 -0.84960046850E+03  0.84960046852E+03  0.50400001928E-02 0.  1.
    10030    2    1    2    0    0  0.00000000000E+00  0.00000000000E+00  0.70354477463E+01  0.17062363848E+04  0.17062218798E+04 0.  0.
        4    1    3    3  502    0  0.55708849948E+03 -0.49636036536E+03  0.41713392647E+03  0.85482368596E+03  0.12699999809E+01 0. -1.
       -4    1    3    3    0  502 -0.55708849948E+03  0.49636036536E+03 -0.41009847873E+03  0.85141269882E+03  0.12699999809E+01 0.  1.
</event>
<event>
 5   0  0.4720875E-05  0.1723020E+04  0.7818609E-02  0.8748343E-01
       -3   -1    0    0    0  501  0.00000000000E+00  0.00000000000E+00  0.21547348317E+04  0.21547348341E+04  0.10100000352E+00 0.  1.
        3   -1    0    0  501    0  0.00000000000E+00  0.00000000000E+00 -0.34445041190E+03  0.34445042671E+03  0.10100000352E+00 0. -1.
    10030    2    1    2    0    0  0.00000000000E+00  0.00000000000E+00  0.18102844198E+04  0.24991852608E+04  0.17230198162E+04 0.  0.
        1    1    3    3  502    0  0.79408074125E+03 -0.24815717134E+03  0.58063545597E+03  0.10145362182E+04  0.50400001928E-02 0.  1.
       -1    1    3    3    0  502 -0.79408074125E+03  0.24815717134E+03  0.12296489639E+04  0.14846490426E+04  0.50400001928E-02 0. -1.
</event>
<event>
 5   0  0.1285639E-04  0.1698902E+04  0.7818609E-02  0.8761991E-01
        2   -1    0    0  501    0  0.00000000000E+00  0.00000000000E+00  0.10129170205E+04  0.10129170205E+04  0.25500000920E-02 0.  1.
       -2   -1    0    0    0  501  0.00000000000E+00  0.00000000000E+00 -0.71236550083E+03  0.71236550084E+03  0.25500000920E-02 0. -1.
    10030    2    1    2    0    0  0.00000000000E+00  0.00000000000E+00  0.30055151968E+03  0.17252825214E+04  0.16989021639E+04 0.  0.
        4    1    3    3  502    0  0.49926667262E+03  0.27027070904E+02  0.84764686607E+03  0.98412625989E+03  0.12699999809E+01 0.  1.
       -4    1    3    3    0  502 -0.49926667262E+03 -0.27027070904E+02 -0.54709534639E+03  0.74115626146E+03  0.12699999809E+01 0. -1.
</event>
<event>
 5   0  0.6834837E-05  0.1701264E+04  0.7818609E-02  0.8760644E-01
       -1   -1    0    0    0  501  0.00000000000E+00  0.00000000000E+00  0.71280954287E+03  0.71280954289E+03  0.50400001928E-02 0. -1.
        1   -1    0    0  501    0  0.00000000000E+00  0.00000000000E+00 -0.10151027506E+04  0.10151027507E+04  0.50400001928E-02 0.  1.
    10030    2    1    2    0    0  0.00000000000E+00  0.00000000000E+00 -0.30229320778E+03  0.17279122935E+04  0.17012641508E+04 0.  0.
        5    1    3    3  502    0  0.73257122599E+03 -0.84359328230E+01 -0.59014493911E+03  0.94075762302E+03  0.46999998093E+01 0.  1.
       -5    1    3    3    0  502 -0.73257122599E+03  0.84359328230E+01  0.28785173134E+03  0.78715467053E+03  0.46999998093E+01 0. -1.
</event>
<event>
 5   0  0.1269175E-04  0.1677395E+04  0.7818609E-02  0.8774363E-01
        2   -1    0    0  501    0  0.00000000000E+00  0.00000000000E+00  0.55643349198E+03  0.55643349199E+03  0.25500000920E-02 0. -1.
       -2   -1    0    0    0  501  0.00000000000E+00  0.00000000000E+00 -0.12641460964E+04  0.12641460964E+04  0.25500000920E-02 0.  1.
    10030    2    1    2    0    0  0.00000000000E+00  0.00000000000E+00 -0.70771260445E+03  0.18205795884E+04  0.16773946784E+04 0.  0.
        2    1    3    3  502    0  0.71427393949E+03 -0.28453142409E+03 -0.71752178497E+03  0.10516572178E+04  0.25500000920E-02 0.  1.
       -2    1    3    3    0  502 -0.71427393949E+03  0.28453142409E+03  0.98091805249E+01  0.76892237057E+03  0.25500000920E-02 0. -1.
</event>
<event>
 5   0  0.6564887E-05  0.1704508E+04  0.7818609E-02  0.8758797E-01
        1   -1    0    0  501    0  0.00000000000E+00  0.00000000000E+00  0.12034120413E+04  0.12034120414E+04  0.50400001928E-02 0. -1.
       -1   -1    0    0    0  501  0.00000000000E+00  0.00000000000E+00 -0.60356489435E+03  0.60356489437E+03  0.50400001928E-02 0.  1.
    10030    2    1    2    0    0  0.00000000000E+00  0.00000000000E+00  0.59984714699E+03  0.18069769357E+04  0.17045084472E+04 0.  0.
        4    1    3    3  502    0  0.55325015521E+03 -0.54561951860E+03  0.67103881407E+03  0.10266845164E+04  0.12699999809E+01 0. -1.
       -4    1    3    3    0  502 -0.55325015521E+03  0.54561951860E+03 -0.71191667081E+02  0.78029241933E+03  0.12699999809E+01 0.  1.
</event>
<event>
 5   0  0.6601906E-05  0.1701137E+04  0.7818609E-02  0.8760716E-01
        1   -1    0    0  501    0  0.00000000000E+00  0.00000000000E+00  0.65807611445E+03  0.65807611447E+03  0.50400001928E-02 0.  1.
       -1   -1    0    0    0  501  0.00000000000E+00  0.00000000000E+00 -0.10993658815E+04  0.10993658815E+04  0.50400001928E-02 0. -1.
    10030    2    1    2    0    0  0.00000000000E+00  0.00000000000E+00 -0.44128976706E+03  0.17574419960E+04  0.17011365938E+04 0.  0.
        1    1    3    3  502    0  0.68401680571E+03  0.58655725391E+02 -0.73940749377E+03  0.10089811329E+04  0.50400001928E-02 0. -1.
       -1    1    3    3    0  502 -0.68401680571E+03 -0.58655725391E+02  0.29811772671E+03  0.74846086312E+03  0.50400001928E-02 0.  1.
</event>
<event>
 5   0  0.1269175E-04  0.1685072E+04  0.7818609E-02  0.8769924E-01
       -2   -1    0    0    0  501  0.00000000000E+00  0.00000000000E+00  0.27220134580E+03  0.27220134581E+03  0.25500000920E-02 0. -1.
        2   -1    0    0  501    0  0.00000000000E+00  0.00000000000E+00 -0.26078742739E+04  0.26078742739E+04  0.25500000920E-02 0.  1.
    10030    2    1    2    0    0  0.00000000000E+00  0.00000000000E+00 -0.23356729281E+04  0.28800756197E+04  0.16850719712E+04 0.  0.
        2    1    3    3  502    0 -0.69269931608E+03 -0.30676870701E+03 -0.17979794530E+04  0.19510688085E+04  0.25500000920E-02 0.  1.
       -2    1    3    3    0  502  0.69269931608E+03  0.30676870701E+03 -0.53769347511E+03  0.92900681121E+03  0.25500000920E-02 0. -1.
</event>
<event>
 5   0  0.1285639E-04  0.1706778E+04  0.7818609E-02  0.8757508E-01
       -2   -1    0    0    0  501  0.00000000000E+00  0.00000000000E+00  0.86448864186E+03  0.86448864186E+03  0.25500000920E-02 0.  1.
        2   -1    0    0  501    0  0.00000000000E+00  0.00000000000E+00 -0.84243185061E+03  0.84243185062E+03  0.25500000920E-02 0. -1.
    10030    2    1    2    0    0  0.00000000000E+00  0.00000000000E+00  0.22056791241E+02  0.17069204925E+04  0.17067779778E+04 0.  0.
        4    1    3    3  502    0 -0.25528213231E+03  0.58774621478E+03  0.57468575946E+03  0.86074381502E+03  0.12699999809E+01 0.  1.
       -4    1    3    3    0  502  0.25528213231E+03 -0.58774621478E+03 -0.55262896822E+03  0.84617667746E+03  0.12699999809E+01 0. -1.
</event>
<event>
 5   0  0.6539134E-05  0.1695256E+04  0.7818609E-02  0.8764075E-01
        1   -1    0    0  501    0  0.00000000000E+00  0.00000000000E+00  0.63581553757E+03  0.63581553759E+03  0.50400001928E-02 0.  1.
       -1   -1    0    0    0  501  0.00000000000E+00  0.00000000000E+00 -0.11300023241E+04  0.11300023241E+04  0.50400001928E-02 0. -1.
    10030    2    1    2    0    0  0.00000000000E+00  0.00000000000E+00 -0.49418678654E+03  0.17658178617E+04  0.16952557744E+04 0.  0.
        2    1    3    3  502    0  0.45215867818E+03  0.54954081868E+03  0.23254042204E+03  0.74867725326E+03  0.25500000920E-02 0.  1.
       -2    1    3    3    0  502 -0.45215867818E+03 -0.54954081868E+03 -0.72672720858E+03  0.10171406084E+04  0.25500000920E-02 0. -1.
</event>
<event>
 5   0  0.6601906E-05  0.1703468E+04  0.7818609E-02  0.8759389E-01
       -1   -1    0    0    0  501  0.00000000000E+00  0.00000000000E+00  0.12383813709E+04  0.12383813709E+04  0.50400001928E-02 0.  1.
        1   -1    0    0  501    0  0.00000000000E+00  0.00000000000E+00 -0.58580564980E+03  0.58580564982E+03  0.50400001928E-02 0. -1.
    10030    2    1    2    0    0  0.00000000000E+00  0.00000000000E+00  0.65257572110E+03  0.18241870207E+04  0.17034679964E+04 0.  0.
        1    1    3    3  502    0 -0.55639358843E+03 -0.50921679569E+03  0.75002537670E+03  0.10636792919E+04  0.50400001928E-02 0.  1.
       -1    1    3    3    0  502  0.55639358843E+03  0.50921679569E+03 -0.97449655595E+02  0.76050772886E+03  0.50400001928E-02 0. -1.
</event>
<event>
 5   0  0.6564887E-05  0.1672990E+04  0.7818609E-02  0.8776921E-01
        1   -1    0    0  501    0  0.00000000000E+00  0.00000000000E+00  0.13582176846E+04  0.13582176846E+04  0.50400001928E-02 0. -1.
       -1   -1    0    0    0  501  0.00000000000E+00  0.00000000000E+00 -0.51517799757E+03  0.51517799759E+03  0.50400001928E-02 0.  1.
    10030    2    1    2    0    0  0.00000000000E+00  0.00000000000E+00  0.84303968700E+03  0.18733956822E+04  0.16729899785E+04 0.  0.
        4    1    3    3  502    0  0.15764185145E+03 -0.29283669511E+03  0.12810028828E+04  0.13234705444E+04  0.12699999809E+01 0. -1.
       -4    1    3    3    0  502 -0.15764185145E+03  0.29283669511E+03 -0.43796319581E+03  0.54992513773E+03  0.12699999809E+01 0.  1.
</event>
<event>
 5   0  0.1285639E-04  0.1702069E+04  0.7818609E-02  0.8760185E-01
       -2   -1    0    0    0  501  0.00000000000E+00  0.00000000000E+00  0.74487992616E+03  0.74487992617E+03  0.25500000920E-02 0.  1.
        2   -1    0    0  501    0  0.00000000000E+00  0.00000000000E+00 -0.97231751475E+03  0.97231751475E+03  0.25500000920E-02 0. -1.
    10030    2    1    2    0    0  0.00000000000E+00  0.00000000000E+00 -0.22743758859E+03  0.17171974409E+04  0.17020690921E+04 0.  0.
        4    1    3    3  502    0 -0.64220756276E+03 -0.53239015341E+03  0.56267212959E+02  0.83608458978E+03  0.12699999809E+01 0.  1.
       -4    1    3    3    0  502  0.64220756276E+03  0.53239015341E+03 -0.28370480155E+03  0.88111285114E+03  0.12699999809E+01 0. -1.
</event>
<event>
 5   0  0.6615842E-05  0.1698051E+04  0.7818609E-02  0.8762476E-01
        1   -1    0    0  501    0  0.00000000000E+00  0.00000000000E+00  0.16440834347E+04  0.16440834347E+04  0.50400001928E-02 0.  1.
       -1   -1    0    0    0  501  0.00000000000E+00  0.00000000000E+00 -0.43844773708E+03  0.43844773711E+03  0.50400001928E-02 0. -1.
    10030    2    1    2    0    0  0.00000000000E+00  0.00000000000E+00  0.12056356976E+04  0.20825311718E+04  0.16980514263E+04 0.  0.
        3    1    3    3  502    0  0.51677383794E+03 -0.65185977700E+03  0.39444019295E+03  0.92062991721E+03  0.10100000352E+00 0. -1.
       -3    1    3    3    0  502 -0.51677383794E+03  0.65185977700E+03  0.81119550464E+03  0.11619012546E+04  0.10100000352E+00 0.  1.
</event>
<event>
 5   0  0.6601906E-05  0.1708715E+04  0.7818609E-02  0.8756409E-01
       -1   -1    0    0    0  501  0.00000000000E+00  0.00000000000E+00  0.70123374600E+03  0.70123374602E+03  0.50400001928E-02 0. -1.
        1   -1    0    0  501    0  0.00000000000E+00  0.00000000000E+00 -0.10409181252E+04  0.10409181252E+04  0.50400001928E-02 0.  1.
    10030    2    1    2    0    0  0.00000000000E+00  0.00000000000E+00 -0.33968437917E+03  0.17421518712E+04  0.17087152088E+04 0.  0.
        1    1    3    3  502    0  0.79785923500E+03 -0.23385316889E+03 -0.37031185757E+03  0.91016346628E+03  0.50400001928E-02 0.  1.
       -1    1    3    3    0  502 -0.79785923500E+03  0.23385316889E+03  0.30627478403E+02  0.83198840492E+03  0.50400001928E-02 0. -1.
</event>
<event>
 5   0  0.6601906E-05  0.1709389E+04  0.7818609E-02  0.8756027E-01
        1   -1    0    0  501    0  0.00000000000E+00  0.00000000000E+00  0.14944291908E+04  0.14944291909E+04  0.50400001928E-02 0. -1.
       -1   -1    0    0    0  501  0.00000000000E+00  0.00000000000E+00 -0.48881744049E+03  0.48881744052E+03  0.50400001928E-02 0.  1.
    10030    2    1    2    0    0  0.00000000000E+00  0.00000000000E+00  0.10056117504E+04  0.19832466314E+04  0.17093894256E+04 0.  0.
        1    1    3    3  502    0  0.77860934221E+03  0.28848019448E+03  0.73787241836E+03  0.11108145823E+04  0.50400001928E-02 0. -1.
       -1    1    3    3    0  502 -0.77860934221E+03 -0.28848019448E+03  0.26773933199E+03  0.87243204910E+03  0.50400001928E-02 0.  1.
</event>
<event>
 5   0  0.1285639E-04  0.1700681E+04  0.7818609E-02  0.8760976E-01
        2   -1    0    0  501    0  0.00000000000E+00  0.00000000000E+00  0.59687969117E+03  0.59687969118E+03  0.25500000920E-02 0. -1.
       -2   -1    0    0    0  501  0.00000000000E+00  0.00000000000E+00 -0.12114321438E+04  0.12114321438E+04  0.25500000920E-02 0.  1.
    10030    2    1    2    0    0  0.00000000000E+00  0.00000000000E+00 -0.61455245260E+03  0.18083118350E+04  0.17006813268E+04 0.  0.
        4    1    3    3  502    0  0.11102183689E+03 -0.51356520558E+03  0.40361865588E+03  0.66255920560E+03  0.12699999809E+01 0. -1.
       -4    1    3    3    0  502 -0.11102183689E+03  0.51356520558E+03 -0.10181711085E+04  0.11457526294E+04  0.12699999809E+01 0.  1.
</event>
<event>
 5   0  0.1393870E-04  0.1712880E+04  0.7818609E-02  0.8754052E-01
        2   -1    0    0  501    0  0.00000000000E+00  0.00000000000E+00  0.79696710933E+03  0.79696710934E+03  0.25500000920E-02 0.  1.
       -2   -1    0    0    0  501  0.00000000000E+00  0.00000000000E+00 -0.92035098913E+03  0.92035098913E+03  0.25500000920E-02 0. -1.
    10030    2    1    2    0    0  0.00000000000E+00  0.00000000000E+00 -0.12338387980E+03  0.17173180985E+04  0.17128799927E+04 0.  0.
        3    1    3    3  502    0  0.50770055082E+03  0.19957287333E+03  0.60024616510E+03  0.81110088768E+03  0.10100000352E+00 0.  1.
       -3    1    3    3    0  502 -0.50770055082E+03 -0.19957287333E+03 -0.72363004489E+03  0.90621721080E+03  0.10100000352E+00 0. -1.
</event>
<event>
 5   0  0.1333546E-04  0.1704412E+04  0.7818609E-02  0.8758852E-01
        2   -1    0    0  501    0  0.00000000000E+00  0.00000000000E+00  0.90192106507E+03  0.90192106507E+03  0.25500000920E-02 0. -1.
       -2   -1    0    0    0  501  0.00000000000E+00  0.00000000000E+00 -0.80523086605E+03  0.80523086605E+03  0.25500000920E-02 0.  1.
    10030    2    1    2    0    0  0.00000000000E+00  0.00000000000E+00  0.96690199018E+02  0.17071519311E+04  0.17044115469E+04 0.  0.
        5    1    3    3  502    0 -0.66947050111E+03 -0.52706779361E+03  0.32783729375E+02  0.85269459587E+03  0.46999998093E+01 0.  1.
       -5    1    3    3    0  502  0.66947050111E+03  0.52706779361E+03  0.63906469643E+02  0.85445733526E+03  0.46999998093E+01 0. -1.
</event>
<event>
 5   0  0.1393870E-04  0.1820798E+04  0.7818609E-02  0.8695317E-01
        2   -1    0    0  501    0  0.00000000000E+00  0.00000000000E+00  0.84505336160E+03  0.84505336161E+03  0.25500000920E-02 0. -1.
       -2   -1    0    0    0  501  0.00000000000E+00  0.00000000000E+00 -0.98079767414E+03  0.98079767414E+03  0.25500000920E-02 0.  1.
    10030    2    1    2    0    0  0.00000000000E+00  0.00000000000E+00 -0.13574431254E+03  0.18258510357E+04  0.18207980356E+04 0.  0.
        3    1    3    3  502    0  0.82036582249E+03  0.31827756748E+03  0.16628318365E+03  0.89551705737E+03  0.10100000352E+00 0.  1.
       -3    1    3    3    0  502 -0.82036582249E+03 -0.31827756748E+03 -0.30202749618E+03  0.93033397838E+03  0.10100000352E+00 0. -1.
</event>
<event>
 5   0  0.6834837E-05  0.1702936E+04  0.7818609E-02  0.8759692E-01
       -1   -1    0    0    0  501  0.00000000000E+00  0.00000000000E+00  0.41118418300E+03  0.41118418304E+03  0.50400001928E-02 0. -1.
        1   -1    0    0  501    0  0.00000000000E+00  0.00000000000E+00 -0.17631938014E+04  0.17631938014E+04  0.50400001928E-02 0.  1.
    10030    2    1    2    0    0  0.00000000000E+00  0.00000000000E+00 -0.13520096184E+04  0.21743779845E+04  0.17029355863E+04 0.  0.
        5    1    3    3  502    0  0.15095872709E+03  0.83752010583E+03 -0.71089897972E+03  0.11088858888E+04  0.46999998093E+01 0. -1.
       -5    1    3    3    0  502 -0.15095872709E+03 -0.83752010583E+03 -0.64111063871E+03  0.10654920957E+04  0.46999998093E+01 0.  1.
</event>
<event>
 5   0  0.1333546E-04  0.1697447E+04  0.7818609E-02  0.8762822E-01
       -2   -1    0    0    0  501  0.00000000000E+00  0.00000000000E+00  0.76522653864E+03  0.76522653865E+03  0.25500000920E-02 0. -1.
        2   -1    0    0  501    0  0.00000000000E+00  0.00000000000E+00 -0.94133098147E+03  0.94133098148E+03  0.25500000920E-02 0.  1.
    10030    2    1    2    0    0  0.00000000000E+00  0.00000000000E+00 -0.17610444283E+03  0.17065575201E+04  0.16974468459E+04 0.  0.
        5    1    3    3  502    0  0.70240678881E+03  0.34473515203E+03 -0.41858991668E+03  0.88738786917E+03  0.46999998093E+01 0.  1.
       -5    1    3    3    0  502 -0.70240678881E+03 -0.34473515203E+03  0.24248547385E+03  0.81916965095E+03  0.46999998093E+01 0. -1.
</event>
<event>
 5   0  0.1269175E-04  0.1703874E+04  0.7818609E-02  0.8759158E-01
        2   -1    0    0  501    0  0.00000000000E+00  0.00000000000E+00  0.11525775392E+04  0.11525775392E+04  0.25500000920E-02 0.  1.
       -2   -1    0    0    0  501  0.00000000000E+00  0.00000000000E+00 -0.62971635887E+03  0.62971635888E+03  0.25500000920E-02 0. -1.
    10030    2    1    2    0    0  0.00000000000E+00  0.00000000000E+00  0.52286118029E+03  0.17822938980E+04  0.17038743279E+04 0.  0.
        2    1    3    3  502    0 -0.21497628769E+03  0.24374050885E+03  0.10851856212E+04  0.11328071647E+04  0.25500000920E-02 0.  1.
       -2    1    3    3    0  502  0.21497628769E+03 -0.24374050885E+03 -0.56232444092E+03  0.64948673334E+03  0.25500000920E-02 0. -1.
</event>
<event>
 5   0  0.1333546E-04  0.1703266E+04  0.7818609E-02  0.8759504E-01
        2   -1    0    0  501    0  0.00000000000E+00  0.00000000000E+00  0.12143422456E+04  0.12143422456E+04  0.25500000920E-02 0. -1.
       -2   -1    0    0    0  501  0.00000000000E+00  0.00000000000E+00 -0.59726032929E+03  0.59726032930E+03  0.25500000920E-02 0.  1.
    10030    2    1    2    0    0  0.00000000000E+00  0.00000000000E+00  0.61708191633E+03  0.18116025749E+04  0.17032656276E+04 0.  0.
        5    1    3    3  502    0  0.12957852081E+03 -0.79696567101E+03  0.59652376305E+03  0.10038961917E+04  0.46999998093E+01 0.  1.
       -5    1    3    3    0  502 -0.12957852081E+03  0.79696567101E+03  0.20558153280E+02  0.80770638322E+03  0.46999998093E+01 0. -1.
</event>
<event>
 5   0  0.6601906E-05  0.1702248E+04  0.7818609E-02  0.8760083E-01
        1   -1    0    0  501    0  0.00000000000E+00  0.00000000000E+00  0.14889097568E+04  0.14889097568E+04  0.50400001928E-02 0.  1.
       -1   -1    0    0    0  501  0.00000000000E+00  0.00000000000E+00 -0.48653866717E+03  0.48653866720E+03  0.50400001928E-02 0. -1.
    10030    2    1    2    0    0  0.00000000000E+00  0.00000000000E+00  0.10023710896E+04  0.19754484240E+04  0.17022481237E+04 0.  0.
        1    1    3    3  502    0  0.20282462992E+03 -0.33126900574E+02 -0.45731276336E+03  0.50136831332E+03  0.50400001928E-02 0. -1.
       -1    1    3    3    0  502 -0.20282462992E+03  0.33126900574E+02  0.14596838530E+04  0.14740801107E+04  0.50400001928E-02 0.  1.
</event>
<event>
 5   0  0.1269175E-04  0.1701580E+04  0.7818609E-02  0.8760464E-01
       -2   -1    0    0    0  501  0.00000000000E+00  0.00000000000E+00  0.48632502538E+03  0.48632502538E+03  0.25500000920E-02 0.  1.
        2   -1    0    0  501    0  0.00000000000E+00  0.00000000000E+00 -0.14883946827E+04  0.14883946827E+04  0.25500000920E-02 0. -1.
    10030    2    1    2    0    0  0.00000000000E+00  0.00000000000E+00 -0.10020696573E+04  0.19747197081E+04  0.17015799503E+04 0.  0.
        2    1    3    3  502    0  0.21317796649E+02  0.50991980497E+02 -0.14863091436E+04  0.14873363778E+04  0.25500000920E-02 0. -1.
       -2    1    3    3    0  502 -0.21317796649E+02 -0.50991980497E+02  0.48423948627E+03  0.48738333024E+03  0.25500000920E-02 0.  1.
</event>
<event>
 5   0  0.6834837E-05  0.1708646E+04  0.7818609E-02  0.8756448E-01
        1   -1    0    0  501    0  0.00000000000E+00  0.00000000000E+00  0.73393074304E+03  0.73393074306E+03  0.50400001928E-02 0.  1.
       -1   -1    0    0    0  501  0.00000000000E+00  0.00000000000E+00 -0.99446441293E+03  0.99446441294E+03  0.50400001928E-02 0. -1.
    10030    2    1    2    0    0  0.00000000000E+00  0.00000000000E+00 -0.26053366989E+03  0.17283951560E+04  0.17086462542E+04 0.  0.
        5    1    3    3  502    0  0.27843078066E+03  0.79758533962E+03 -0.25893704768E+03  0.88359298223E+03  0.46999998093E+01 0. -1.
       -5    1    3    3    0  502 -0.27843078066E+03 -0.79758533962E+03 -0.15966222135E+01  0.84480217376E+03  0.46999998093E+01 0.  1.
</event>
<event>
 5   0  0.6615842E-05  0.1698305E+04  0.7818609E-02  0.8762331E-01
        1   -1    0    0  501    0  0.00000000000E+00  0.00000000000E+00  0.10525948806E+04  0.10525948807E+04  0.50400001928E-02 0.  1.
       -1   -1    0    0    0  501  0.00000000000E+00  0.00000000000E+00 -0.68503121206E+03  0.68503121208E+03  0.50400001928E-02 0. -1.
    10030    2    1    2    0    0  0.00000000000E+00  0.00000000000E+00  0.36756366859E+03  0.17376260927E+04  0.16983054459E+04 0.  0.
        3    1    3    3  502    0  0.47051969640E+03  0.38970929832E+02  0.90592253527E+03  0.10215689738E+04  0.10100000352E+00 0.  1.
       -3    1    3    3    0  502 -0.47051969640E+03 -0.38970929832E+02 -0.53835886669E+03  0.71605711896E+03  0.10100000352E+00 0. -1.
</event>
<event>
 5   0  0.1285639E-04  0.1700995E+04  0.7818609E-02  0.8760797E-01
        2   -1    0    0  501    0  0.00000000000E+00  0.00000000000E+00  0.99937294249E+03  0.99937294250E+03  0.25500000920E-02 0. -1.
       -2   -1    0    0    0  501  0.00000000000E+00  0.00000000000E+00 -0.72379981335E+03  0.72379981335E+03  0.25500000920E-02 0.  1.
    10030    2    1    2    0    0  0.00000000000E+00  0.00000000000E+00  0.27557312915E+03  0.17231727558E+04  0.17009949433E+04 0.  0.
        4    1    3    3  502    0 -0.28735244045E+03  0.14188668868E+03 -0.66029275222E+03  0.73395598573E+03  0.12699999809E+01 0.  1.
       -4    1    3    3    0  502  0.28735244045E+03 -0.14188668868E+03  0.93586588137E+03  0.98921677011E+03  0.12699999809E+01 0. -1.
</event>
<event>
 5   0  0.6834837E-05  0.1661703E+04  0.7818609E-02  0.8783513E-01
        1   -1    0    0  501    0  0.00000000000E+00  0.00000000000E+00  0.19252283175E+04  0.19252283175E+04  0.50400001928E-02 0. -1.
       -1   -1    0    0    0  501  0.00000000000E+00  0.00000000000E+00 -0.35856222224E+03  0.35856222227E+03  0.50400001928E-02 0.  1.
    10030    2    1    2    0    0  0.00000000000E+00  0.00000000000E+00  0.15666660952E+04  0.22837905397E+04  0.16617029143E+04 0.  0.
        5    1    3    3  502    0  0.77567478456E+02  0.70149245564E+03  0.13858387128E+04  0.15552104060E+04  0.46999998093E+01 0. -1.
       -5    1    3    3    0  502 -0.77567478456E+02 -0.70149245564E+03  0.18082738242E+03  0.72858013373E+03  0.46999998093E+01 0.  1.
</event>
<event>
 5   0  0.6601906E-05  0.1696494E+04  0.7818609E-02  0.8763366E-01
       -1   -1    0    0    0  501  0.00000000000E+00  0.00000000000E+00  0.32248487135E+03  0.32248487139E+03  0.50400001928E-02 0.  1.
        1   -1    0    0  501    0  0.00000000000E+00  0.00000000000E+00 -0.22311843319E+04  0.22311843319E+04  0.50400001928E-02 0. -1.
    10030    2    1    2    0    0  0.00000000000E+00  0.00000000000E+00 -0.19086994605E+04  0.25536692033E+04  0.16964942585E+04 0.  0.
        1    1    3    3  502    0  0.70022694629E+03 -0.37308357541E+03 -0.50273570145E+03  0.93928287330E+03  0.50400001928E-02 0.  1.
       -1    1    3    3    0  502 -0.70022694629E+03  0.37308357541E+03 -0.14059637591E+04  0.16143863300E+04  0.50400001928E-02 0. -1.
</event>
<event>
 5   0  0.6615842E-05  0.1702790E+04  0.7818609E-02  0.8759775E-01
        1   -1    0    0  501    0  0.00000000000E+00  0.00000000000E+00  0.18973130060E+04  0.18973130060E+04  0.50400001928E-02 0.  1.
       -1   -1    0    0    0  501  0.00000000000E+00  0.00000000000E+00 -0.38205262575E+03  0.38205262579E+03  0.50400001928E-02 0. -1.
    10030    2    1    2    0    0  0.00000000000E+00  0.00000000000E+00  0.15152603802E+04  0.22793656318E+04  0.17027899646E+04 0.  0.
        3    1    3    3  502    0 -0.53535679080E+03 -0.60302850435E+02 -0.12486592622E+03  0.55302336023E+03  0.10100000352E+00 0. -1.
       -3    1    3    3    0  502  0.53535679080E+03  0.60302850435E+02  0.16401263065E+04  0.17263422716E+04  0.10100000352E+00 0.  1.
</event>
<event>
 5   0  0.1333546E-04  0.1702319E+04  0.7818609E-02  0.8760043E-01
       -2   -1    0    0    0  501  0.00000000000E+00  0.00000000000E+00  0.41074034098E+03  0.41074034099E+03  0.25500000920E-02 0. -1.
        2   -1    0    0  501    0  0.00000000000E+00  0.00000000000E+00 -0.17638203518E+04  0.17638203518E+04  0.25500000920E-02 0.  1.
    10030    2    1    2    0    0  0.00000000000E+00  0.00000000000E+00 -0.13530800108E+04  0.21745606927E+04  0.17023186220E+04 0.  0.
        5    1    3    3  502    0 -0.62542151777E+03 -0.51404224056E+03 -0.34084914737E+03  0.87840294355E+03  0.46999998093E+01 0. -1.
       -5    1    3    3    0  502  0.62542151777E+03  0.51404224056E+03 -0.10122308634E+04  0.12961577492E+04  0.46999998093E+01 0.  1.
</event>
<event>
 5   0  0.6564887E-05  0.1698451E+04  0.7818609E-02  0.8762248E-01
       -1   -1    0    0    0  501  0.00000000000E+00  0.00000000000E+00  0.34633714288E+03  0.34633714291E+03  0.50400001928E-02 0.  1.
        1   -1    0    0  501    0  0.00000000000E+00  0.00000000000E+00 -0.20823179052E+04  0.20823179052E+04  0.50400001928E-02 0. -1.
    10030    2    1    2    0    0  0.00000000000E+00  0.00000000000E+00 -0.17359807623E+04  0.24286550481E+04  0.16984510990E+04 0.  0.
        4    1    3    3  502    0 -0.59520301103E+03 -0.55640143960E+03 -0.52560437225E+03  0.96959308752E+03  0.12699999809E+01 0.  1.
       -4    1    3    3    0  502  0.59520301103E+03  0.55640143960E+03 -0.12103763901E+04  0.14590619606E+04  0.12699999809E+01 0. -1.
</event>
<event>
 5   0  0.4720875E-05  0.1716278E+04  0.7818609E-02  0.8752134E-01
        3   -1    0    0  501    0  0.00000000000E+00  0.00000000000E+00  0.72492259058E+03  0.72492259762E+03  0.10100000352E+00 0.  1.
       -3   -1    0    0    0  501  0.00000000000E+00  0.00000000000E+00 -0.10158361746E+04  0.10158361796E+04  0.10100000352E+00 0. -1.
    10030    2    1    2    0    0  0.00000000000E+00  0.00000000000E+00 -0.29091358398E+03  0.17407587772E+04  0.17162780681E+04 0.  0.
        2    1    3    3  502    0 -0.71002076925E+03 -0.11498862412E+03  0.32924764239E+03  0.79104733516E+03  0.25500000920E-02 0.  1.
       -2    1    3    3    0  502  0.71002076925E+03  0.11498862412E+03 -0.62016122637E+03  0.94971144204E+03  0.25500000920E-02 0. -1.
</event>
<event>
 5   0  0.1333546E-04  0.1677242E+04  0.7818609E-02  0.8774452E-01
        2   -1    0    0  501    0  0.00000000000E+00  0.00000000000E+00  0.12758850458E+04  0.12758850458E+04  0.25500000920E-02 0. -1.
       -2   -1    0    0    0  501  0.00000000000E+00  0.00000000000E+00 -0.55121333403E+03  0.55121333404E+03  0.25500000920E-02 0.  1.
    10030    2    1    2    0    0  0.00000000000E+00  0.00000000000E+00  0.72467171173E+03  0.18270983798E+04  0.16772416045E+04 0.  0.
        5    1    3    3  502    0  0.70103015020E+03 -0.41803656847E+03  0.57205970270E+03  0.99673077485E+03  0.46999998093E+01 0. -1.
       -5    1    3    3    0  502 -0.70103015020E+03  0.41803656847E+03  0.15261200903E+03  0.83036760496E+03  0.46999998093E+01 0.  1.
</event>
<event>
 5   0  0.6834837E-05  0.1694716E+04  0.7818609E-02  0.8764384E-01
       -1   -1    0    0    0  501  0.00000000000E+00  0.00000000000E+00  0.44692961934E+03  0.44692961937E+03  0.50400001928E-02 0. -1.
        1   -1    0    0  501    0  0.00000000000E+00  0.00000000000E+00 -0.16065524184E+04  0.16065524184E+04  0.50400001928E-02 0.  1.
    10030    2    1    2    0    0  0.00000000000E+00  0.00000000000E+00 -0.11596227990E+04  0.20534820377E+04  0.16947163312E+04 0.  0.
        5    1    3    3  502    0  0.14605258991E+03  0.12258414089E+03 -0.15802029315E+04  0.15916725874E+04  0.46999998093E+01 0.  1.
       -5    1    3    3    0  502 -0.14605258991E+03 -0.12258414089E+03  0.42058013248E+03  0.46180945038E+03  0.46999998093E+01 0. -1.
</event>
<event>
 5   0  0.1285639E-04  0.1696954E+04  0.7818609E-02  0.8763104E-01
        2   -1    0    0  501    0  0.00000000000E+00  0.00000000000E+00  0.56629906276E+03  0.56629906276E+03  0.25500000920E-02 0.  1.
       -2   -1    0    0    0  501  0.00000000000E+00  0.00000000000E+00 -0.12712591812E+04  0.12712591812E+04  0.25500000920E-02 0. -1.
    10030    2    1    2    0    0  0.00000000000E+00  0.00000000000E+00 -0.70496011845E+03  0.18375582440E+04  0.16969536032E+04 0.  0.
        4    1    3    3  502    0 -0.44477097036E+03  0.18112905943E+03  0.40496459648E+03  0.62819335364E+03  0.12699999809E+01 0.  1.
       -4    1    3    3    0  502  0.44477097036E+03 -0.18112905943E+03 -0.11099247149E+04  0.12093648903E+04  0.12699999809E+01 0. -1.
</event>
<event>
 5   0  0.6564887E-05  0.1607902E+04  0.7818609E-02  0.8815708E-01
       -1   -1    0    0    0  501  0.00000000000E+00  0.00000000000E+00  0.14314546443E+04  0.14314546443E+04  0.50400001928E-02 0.  1.
        1   -1    0    0  501    0  0.00000000000E+00  0.00000000000E+00 -0.45152502191E+03  0.45152502194E+03  0.50400001928E-02 0. -1.
    10030    2    1    2    0    0  0.00000000000E+00  0.00000000000E+00  0.97992962242E+03  0.18829796663E+04  0.16079024718E+04 0.  0.
        4    1    3    3  502    0 -0.20320695243E+03 -0.57621237645E+03  0.11018710978E+04  0.12599346401E+04  0.12699999809E+01 0.  1.
       -4    1    3    3    0  502  0.20320695243E+03  0.57621237645E+03 -0.12194147539E+03  0.62304502615E+03  0.12699999809E+01 0. -1.
</event>
<event>
 5   0  0.6539134E-05  0.1695209E+04  0.7818609E-02  0.8764102E-01
        1   -1    0    0  501    0  0.00000000000E+00  0.00000000000E+00  0.24909149287E+04  0.24909149287E+04  0.50400001928E-02 0. -1.
       -1   -1    0    0    0  501  0.00000000000E+00  0.00000000000E+00 -0.28842152211E+03  0.28842152216E+03  0.50400001928E-02 0.  1.
    10030    2    1    2    0    0  0.00000000000E+00  0.00000000000E+00  0.22024934066E+04  0.27793364508E+04  0.16952091024E+04 0.  0.
        2    1    3    3  502    0  0.12896397696E+03 -0.67853361435E+03  0.19067753600E+04  0.20280117965E+04  0.25500000920E-02 0. -1.
       -2    1    3    3    0  502 -0.12896397696E+03  0.67853361435E+03  0.29571804652E+03  0.75132465433E+03  0.25500000920E-02 0.  1.
</event>
<event>
 5   0  0.6615842E-05  0.1693361E+04  0.7818609E-02  0.8765160E-01
       -1   -1    0    0    0  501  0.00000000000E+00  0.00000000000E+00  0.40122628499E+03  0.40122628503E+03  0.50400001928E-02 0.  1.
        1   -1    0    0  501    0  0.00000000000E+00  0.00000000000E+00 -0.17866913310E+04  0.17866913310E+04  0.50400001928E-02 0. -1.
    10030    2    1    2    0    0  0.00000000000E+00  0.00000000000E+00 -0.13854650460E+04  0.21879176160E+04  0.16933605938E+04 0.  0.
        3    1    3    3  502    0  0.29097958826E+03 -0.40639424901E+03 -0.15757301473E+04  0.16531034189E+04  0.10100000352E+00 0. -1.
       -3    1    3    3    0  502 -0.29097958826E+03  0.40639424901E+03  0.19026510131E+03  0.53481419707E+03  0.10100000352E+00 0.  1.
</event>
<event>
 5   0  0.1393870E-04  0.1690126E+04  0.7818609E-02  0.8767016E-01
       -2   -1    0    0    0  501  0.00000000000E+00  0.00000000000E+00  0.54636844182E+03  0.54636844183E+03  0.25500000920E-02 0. -1.
        2   -1    0    0  501    0  0.00000000000E+00  0.00000000000E+00 -0.13070505166E+04  0.13070505166E+04  0.25500000920E-02 0.  1.
    10030    2    1    2    0    0  0.00000000000E+00  0.00000000000E+00 -0.76068207475E+03  0.18534189584E+04  0.16901256215E+04 0.  0.
        3    1    3    3  502    0  0.61266630352E+03  0.47278184651E+03 -0.75262317588E+03  0.10795018893E+04  0.10100000352E+00 0.  1.
       -3    1    3    3    0  502 -0.61266630352E+03 -0.47278184651E+03 -0.80588988737E+01  0.77391706914E+03  0.10100000352E+00 0. -1.
</event>
<event>
 5   0  0.6539134E-05  0.1709261E+04  0.7818609E-02  0.8756100E-01
       -1   -1    0    0    0  501  0.00000000000E+00  0.00000000000E+00  0.12705037939E+04  0.12705037939E+04  0.50400001928E-02 0.  1.
        1   -1    0    0  501    0  0.00000000000E+00  0.00000000000E+00 -0.57488480213E+03  0.57488480215E+03  0.50400001928E-02 0. -1.
    10030    2    1    2    0    0  0.00000000000E+00  0.00000000000E+00  0.69561899180E+03  0.18453885961E+04  0.17092610359E+04 0.  0.
        2    1    3    3  502    0  0.96937201970E+02  0.33040492624E+03 -0.49668048108E+03  0.60436391082E+03  0.25500000920E-02 0. -1.
       -2    1    3    3    0  502 -0.96937201970E+02 -0.33040492624E+03  0.11922994729E+04  0.12410246853E+04  0.25500000920E-02 0.  1.
</event>
<event>
 5   0  0.6539134E-05  0.1707001E+04  0.7818609E-02  0.8757382E-01
        1   -1    0    0  501    0  0.00000000000E+00  0.00000000000E+00  0.88252453702E+03  0.88252453703E+03  0.50400001928E-02 0. -1.
       -1   -1    0    0    0  501  0.00000000000E+00  0.00000000000E+00 -0.82543077702E+03  0.82543077704E+03  0.50400001928E-02 0.  1.
    10030    2    1    2    0    0  0.00000000000E+00  0.00000000000E+00  0.57093759992E+02  0.17079553141E+04  0.17070007784E+04 0.  0.
        2    1    3    3  502    0  0.10550964882E+03  0.52084764240E+03  0.69678886589E+03  0.87631574003E+03  0.25500000920E-02 0. -1.
       -2    1    3    3    0  502 -0.10550964882E+03 -0.52084764240E+03 -0.63969510590E+03  0.83163957404E+03  0.25500000920E-02 0.  1.
</event>
<event>
 5   0  0.1333546E-04  0.1705243E+04  0.7818609E-02  0.8758380E-01
        2   -1    0    0  501    0  0.00000000000E+00  0.00000000000E+00  0.21205089745E+04  0.21205089745E+04  0.25500000920E-02 0.  1.
       -2   -1    0    0    0  501  0.00000000000E+00  0.00000000000E+00 -0.34282508046E+03  0.34282508047E+03  0.25500000920E-02 0. -1.
    10030    2    1    2    0    0  0.00000000000E+00  0.00000000000E+00  0.17776838940E+04  0.24633340550E+04  0.17052432786E+04 0.  0.
        5    1    3    3  502    0  0.18760101005E+03  0.42191868327E+03  0.19242351204E+04  0.19788664439E+04  0.46999998093E+01 0.  1.
       -5    1    3    3    0  502 -0.18760101005E+03 -0.42191868327E+03 -0.14655122632E+03  0.48446761109E+03  0.46999998093E+01 0. -1.
</event>
<event>
 5   0  0.1285639E-04  0.1697777E+04  0.7818609E-02  0.8762633E-01
       -2   -1    0    0    0  501  0.00000000000E+00  0.00000000000E+00  0.10470255085E+04  0.10470255085E+04  0.25500000920E-02 0. -1.
        2   -1    0    0  501    0  0.00000000000E+00  0.00000000000E+00 -0.68824658988E+03  0.68824658988E+03  0.25500000920E-02 0.  1.
    10030    2    1    2    0    0  0.00000000000E+00  0.00000000000E+00  0.35877891860E+03  0.17352720984E+04  0.16977770592E+04 0.  0.
        4    1    3    3  502    0 -0.73244260783E+03 -0.23150988635E+03 -0.18989462683E+03  0.79128413572E+03  0.12699999809E+01 0.  1.
       -4    1    3    3    0  502  0.73244260783E+03  0.23150988635E+03  0.54867354543E+03  0.94398796263E+03  0.12699999809E+01 0. -1.
</event>
<event>
 5   0  0.6539134E-05  0.1664776E+04  0.7818609E-02  0.8781713E-01
        1   -1    0    0  501    0  0.00000000000E+00  0.00000000000E+00  0.24501979732E+04  0.24501979732E+04  0.50400001928E-02 0. -1.
       -1   -1    0    0    0  501  0.00000000000E+00  0.00000000000E+00 -0.28278115190E+03  0.28278115194E+03  0.50400001928E-02 0.  1.
    10030    2    1    2    0    0  0.00000000000E+00  0.00000000000E+00  0.21674168213E+04  0.27329791252E+04  0.16647760273E+04 0.  0.
        2    1    3    3  502    0 -0.75219479907E+03 -0.19372650234E+03  0.15749508888E+04  0.17560743936E+04  0.25500000920E-02 0.  1.
       -2    1    3    3    0  502  0.75219479907E+03  0.19372650234E+03  0.59246593248E+03  0.97690473160E+03  0.25500000920E-02 0. -1.
</event>
<event>
 5   0  0.6615842E-05  0.1701081E+04  0.7818609E-02  0.8760748E-01
        1   -1    0    0  501    0  0.00000000000E+00  0.00000000000E+00  0.12141277397E+04  0.12141277397E+04  0.50400001928E-02 0. -1.
       -1   -1    0    0    0  501  0.00000000000E+00  0.00000000000E+00 -0.59583449823E+03  0.59583449825E+03  0.50400001928E-02 0.  1.
    10030    2    1    2    0    0  0.00000000000E+00  0.00000000000E+00  0.61829324147E+03  0.18099622380E+04  0.17010810593E+04 0.  0.
        3    1    3    3  502    0 -0.60717346006E+03  0.31028516064E+03 -0.23180725689E+03  0.72018824349E+03  0.10100000352E+00 0.  1.
       -3    1    3    3    0  502  0.60717346006E+03 -0.31028516064E+03  0.85010049837E+03  0.10897739945E+04  0.10100000352E+00 0. -1.
</event>
<event>
 5   0  0.6615842E-05  0.1695234E+04  0.7818609E-02  0.8764087E-01
       -1   -1    0    0    0  501  0.00000000000E+00  0.00000000000E+00  0.29585850107E+03  0.29585850111E+03  0.50400001928E-02 0.  1.
        1   -1    0    0  501    0  0.00000000000E+00  0.00000000000E+00 -0.24283714651E+04  0.24283714651E+04  0.50400001928E-02 0. -1.
    10030    2    1    2    0    0  0.00000000000E+00  0.00000000000E+00 -0.21325129640E+04  0.27242299662E+04  0.16952337205E+04 0.  0.
        3    1    3    3  502    0 -0.36383230282E+03  0.30747447457E+03  0.60405248357E+02  0.48017007541E+03  0.10100000352E+00 0.  1.
       -3    1    3    3    0  502  0.36383230282E+03 -0.30747447457E+03 -0.21929182124E+04  0.22440598908E+04  0.10100000352E+00 0. -1.
</event>
<event>
 5   0  0.1269175E-04  0.1709580E+04  0.7818609E-02  0.8755919E-01
        2   -1    0    0  501    0  0.00000000000E+00  0.00000000000E+00  0.16909378681E+04  0.16909378681E+04  0.25500000920E-02 0.  1.
       -2   -1    0    0    0  501  0.00000000000E+00  0.00000000000E+00 -0.43210714006E+03  0.43210714007E+03  0.25500000920E-02 0. -1.
    10030    2    1    2    0    0  0.00000000000E+00  0.00000000000E+00  0.12588307280E+04  0.21230450082E+04  0.17095804470E+04 0.  0.
        2    1    3    3  502    0  0.85023148115E+03  0.55090850936E+02  0.71489366053E+03  0.11122057001E+04  0.25500000920E-02 0. -1.
       -2    1    3    3    0  502 -0.85023148115E+03 -0.55090850936E+02  0.54393706751E+03  0.10108393081E+04  0.25500000920E-02 0.  1.
</event>
<event>
 5   0  0.6601906E-05  0.1699213E+04  0.7818609E-02  0.8761814E-01
       -1   -1    0    0    0  501  0.00000000000E+00  0.00000000000E+00  0.41265643913E+03  0.41265643916E+03  0.50400001928E-02 0.  1.
        1   -1    0    0  501    0  0.00000000000E+00  0.00000000000E+00 -0.17492297793E+04  0.17492297793E+04  0.50400001928E-02 0. -1.
    10030    2    1    2    0    0  0.00000000000E+00  0.00000000000E+00 -0.13365733402E+04  0.21618862185E+04  0.16992126788E+04 0.  0.
        1    1    3    3  502    0  0.21047490609E+03 -0.12066672297E+03  0.36764781247E+03  0.44048275581E+03  0.50400001928E-02 0.  1.
       -1    1    3    3    0  502 -0.21047490609E+03  0.12066672297E+03 -0.17042211527E+04  0.17214034627E+04  0.50400001928E-02 0. -1.
</event>
<event>
 5   0  0.1333546E-04  0.1711075E+04  0.7818609E-02  0.8755073E-01
        2   -1    0    0  501    0  0.00000000000E+00  0.00000000000E+00  0.98237752123E+03  0.98237752123E+03  0.25500000920E-02 0. -1.
       -2   -1    0    0    0  501  0.00000000000E+00  0.00000000000E+00 -0.74507424424E+03  0.74507424425E+03  0.25500000920E-02 0.  1.
    10030    2    1    2    0    0  0.00000000000E+00  0.00000000000E+00  0.23730327699E+03  0.17274517655E+04  0.17110747373E+04 0.  0.
        5    1    3    3  502    0  0.27522782167E+03 -0.79127159769E+03  0.29369219749E+03  0.88777153141E+03  0.46999998093E+01 0.  1.
       -5    1    3    3    0  502 -0.27522782167E+03  0.79127159769E+03 -0.56388920505E+02  0.83968023406E+03  0.46999998093E+01 0. -1.
</event>
<event>
 5   0  0.6615842E-05  0.1701339E+04  0.7818609E-02  0.8760601E-01
        1   -1    0    0  501    0  0.00000000000E+00  0.00000000000E+00  0.56251082205E+03  0.56251082207E+03  0.50400001928E-02 0.  1.
       -1   -1    0    0    0  501  0.00000000000E+00  0.00000000000E+00 -0.12864438951E+04  0.12864438951E+04  0.50400001928E-02 0. -1.
    10030    2    1    2    0    0  0.00000000000E+00  0.00000000000E+00 -0.72393307300E+03  0.18489547171E+04  0.17013390173E+04 0.  0.
        3    1    3    3  502    0 -0.91805616370E+02  0.27866083377E+03 -0.12297181370E+04  0.12642336960E+04  0.10100000352E+00 0. -1.
       -3    1    3    3    0  502  0.91805616370E+02 -0.27866083377E+03  0.50578506395E+03  0.58472102116E+03  0.10100000352E+00 0.  1.
</event>
<event>
 5   0  0.1269175E-04  0.1710866E+04  0.7818609E-02  0.8755191E-01
        2   -1    0    0  501    0  0.00000000000E+00  0.00000000000E+00  0.10274305688E+04  0.10274305688E+04  0.25500000920E-02 0.  1.
       -2   -1    0    0    0  501  0.00000000000E+00  0.00000000000E+00 -0.71222857468E+03  0.71222857469E+03  0.25500000920E-02 0. -1.
    10030    2    1    2    0    0  0.00000000000E+00  0.00000000000E+00  0.31520199412E+03  0.17396591435E+04  0.17108657570E+04 0.  0.
        2    1    3    3  502    0  0.82507913287E+03 -0.39815700648E+02  0.38365883312E+03  0.91078810146E+03  0.25500000920E-02 0.  1.
       -2    1    3    3    0  502 -0.82507913287E+03  0.39815700648E+02 -0.68456838999E+02  0.82887104204E+03  0.25500000920E-02 0. -1.
</event>
<event>
 5   0  0.4720875E-05  0.1686402E+04  0.7818609E-02  0.8769158E-01
        3   -1    0    0  501    0  0.00000000000E+00  0.00000000000E+00  0.74890805868E+03  0.74890806549E+03  0.10100000352E+00 0.  1.
       -3   -1    0    0    0  501  0.00000000000E+00  0.00000000000E+00 -0.94936603968E+03  0.94936604505E+03  0.10100000352E+00 0. -1.
    10030    2    1    2    0    0  0.00000000000E+00  0.00000000000E+00 -0.20045798100E+03  0.16982741105E+04  0.16864019546E+04 0.  0.
        5    1    3    3  502    0  0.14301588445E+03  0.81674618766E+03 -0.25440124542E+03  0.86733497677E+03  0.46999998093E+01 0. -1.
       -5    1    3    3    0  502 -0.14301588445E+03 -0.81674618766E+03  0.53943264418E+02  0.83093913377E+03  0.46999998093E+01 0.  1.
</event>
<event>
 5   0  0.1333546E-04  0.1704373E+04  0.7818609E-02  0.8758874E-01
       -2   -1    0    0    0  501  0.00000000000E+00  0.00000000000E+00  0.45944934096E+03  0.45944934097E+03  0.25500000920E-02 0.  1.
        2   -1    0    0  501    0  0.00000000000E+00  0.00000000000E+00 -0.15806349522E+04  0.15806349522E+04  0.25500000920E-02 0. -1.
    10030    2    1    2    0    0  0.00000000000E+00  0.00000000000E+00 -0.11211856112E+04  0.20400842932E+04  0.17043728314E+04 0.  0.
        5    1    3    3  502    0  0.71477692673E+03 -0.92684643366E+02 -0.16394727869E+02  0.72096281125E+03  0.46999998093E+01 0.  1.
       -5    1    3    3    0  502 -0.71477692673E+03  0.92684643366E+02 -0.11047908834E+04  0.13191214819E+04  0.46999998093E+01 0. -1.
</event>
<event>
 5   0  0.6601906E-05  0.1705589E+04  0.7818609E-02  0.8758183E-01
       -1   -1    0    0    0  501  0.00000000000E+00  0.00000000000E+00  0.81371777410E+03  0.81371777412E+03  0.50400001928E-02 0. -1.
        1   -1    0    0  501    0  0.00000000000E+00  0.00000000000E+00 -0.89374758223E+03  0.89374758224E+03  0.50400001928E-02 0.  1.
    10030    2    1    2    0    0  0.00000000000E+00  0.00000000000E+00 -0.80029808123E+02  0.17074653564E+04  0.17055888054E+04 0.  0.
        1    1    3    3  502    0 -0.20890121086E+03  0.78629326310E+03 -0.29595510610E+03  0.86572873139E+03  0.50400001928E-02 0.  1.
       -1    1    3    3    0  502  0.20890121086E+03 -0.78629326310E+03  0.21592529797E+03  0.84173662498E+03  0.50400001928E-02 0. -1.
</event>
<event>
 5   0  0.6564887E-05  0.1692535E+04  0.7818609E-02  0.8765633E-01
       -1   -1    0    0    0  501  0.00000000000E+00  0.00000000000E+00  0.48266488693E+03  0.48266488695E+03  0.50400001928E-02 0.  1.
        1   -1    0    0  501    0  0.00000000000E+00  0.00000000000E+00 -0.14837803813E+04  0.14837803813E+04  0.50400001928E-02 0. -1.
    10030    2    1    2    0    0  0.00000000000E+00  0.00000000000E+00 -0.10011154944E+04  0.19664452683E+04  0.16925350100E+04 0.  0.
        4    1    3    3  502    0 -0.43740255564E+03 -0.46848540865E+03  0.14147268136E+03  0.65636552794E+03  0.12699999809E+01 0.  1.
       -4    1    3    3    0  502  0.43740255564E+03  0.46848540865E+03 -0.11425881758E+04  0.13100797403E+04  0.12699999809E+01 0. -1.
</event>
<event>
 5   0  0.1393870E-04  0.1681861E+04  0.7818609E-02  0.8771778E-01
        2   -1    0    0  501    0  0.00000000000E+00  0.00000000000E+00  0.72647391433E+03  0.72647391433E+03  0.25500000920E-02 0. -1.
       -2   -1    0    0    0  501  0.00000000000E+00  0.00000000000E+00 -0.97342006676E+03  0.97342006676E+03  0.25500000920E-02 0.  1.
    10030    2    1    2    0    0  0.00000000000E+00  0.00000000000E+00 -0.24694615243E+03  0.16998939811E+04  0.16818612145E+04 0.  0.
        3    1    3    3  502    0 -0.96714854411E+02  0.83110665606E+03 -0.38474793703E+02  0.83759916235E+03  0.10100000352E+00 0. -1.
       -3    1    3    3    0  502  0.96714854411E+02 -0.83110665606E+03 -0.20847135873E+03  0.86229481874E+03  0.10100000352E+00 0.  1.
</event>
<event>
 5   0  0.6834837E-05  0.1698085E+04  0.7818609E-02  0.8762457E-01
        1   -1    0    0  501    0  0.00000000000E+00  0.00000000000E+00  0.85511087653E+03  0.85511087654E+03  0.50400001928E-02 0. -1.
       -1   -1    0    0    0  501  0.00000000000E+00  0.00000000000E+00 -0.84301766580E+03  0.84301766582E+03  0.50400001928E-02 0.  1.
    10030    2    1    2    0    0  0.00000000000E+00  0.00000000000E+00  0.12093210722E+02  0.16981285424E+04  0.16980854810E+04 0.  0.
        5    1    3    3  502    0  0.70873697075E+03  0.22737605026E+03 -0.40242859001E+03  0.84615531789E+03  0.46999998093E+01 0.  1.
       -5    1    3    3    0  502 -0.70873697075E+03 -0.22737605026E+03  0.41452180073E+03  0.85197322447E+03  0.46999998093E+01 0. -1.
</event>
<event>
 5   0  0.1255362E-04  0.1695726E+04  0.7818609E-02  0.8763806E-01
        2   -1    0    0  501    0  0.00000000000E+00  0.00000000000E+00  0.51112497934E+03  0.51112497934E+03  0.25500000920E-02 0. -1.
       -2   -1    0    0    0  501  0.00000000000E+00  0.00000000000E+00 -0.14064493125E+04  0.14064493125E+04  0.25500000920E-02 0.  1.
    10030    2    1    2    0    0  0.00000000000E+00  0.00000000000E+00 -0.89532433314E+03  0.19175742918E+04  0.16957256568E+04 0.  0.
        1    1    3    3  502    0  0.94879664114E+02 -0.27180782930E+03  0.45416156257E+03  0.53772146291E+03  0.50400001928E-02 0. -1.
       -1    1    3    3    0  502 -0.94879664114E+02  0.27180782930E+03 -0.13494858957E+04  0.13798528289E+04  0.50400001928E-02 0.  1.
</event>
<event>
 5   0  0.6601906E-05  0.1692253E+04  0.7818609E-02  0.8765795E-01
        1   -1    0    0  501    0  0.00000000000E+00  0.00000000000E+00  0.49978279528E+03  0.49978279531E+03  0.50400001928E-02 0.  1.
       -1   -1    0    0    0  501  0.00000000000E+00  0.00000000000E+00 -0.14324826963E+04  0.14324826963E+04  0.50400001928E-02 0. -1.
    10030    2    1    2    0    0  0.00000000000E+00  0.00000000000E+00 -0.93269990103E+03  0.19322654916E+04  0.16922531799E+04 0.  0.
        1    1    3    3  502    0 -0.40248420258E+03  0.73832047848E+03 -0.35911792182E+03  0.91437210372E+03  0.50400001928E-02 0.  1.
       -1    1    3    3    0  502  0.40248420258E+03 -0.73832047848E+03 -0.57358197921E+03  0.10178933879E+04  0.50400001928E-02 0. -1.
</event>
<event>
 5   0  0.1269175E-04  0.1658707E+04  0.7818609E-02  0.8785272E-01
       -2   -1    0    0    0  501  0.00000000000E+00  0.00000000000E+00  0.58705233194E+03  0.58705233195E+03  0.25500000920E-02 0.  1.
        2   -1    0    0  501    0  0.00000000000E+00  0.00000000000E+00 -0.11716623080E+04  0.11716623080E+04  0.25500000920E-02 0. -1.
    10030    2    1    2    0    0  0.00000000000E+00  0.00000000000E+00 -0.58460997610E+03  0.17587146400E+04  0.16587068339E+04 0.  0.
        2    1    3    3  502    0 -0.35277559959E+02  0.69039577382E+03 -0.77811836864E+03  0.10408453422E+04  0.25500000920E-02 0. -1.
       -2    1    3    3    0  502  0.35277559959E+02 -0.69039577382E+03  0.19350839254E+03  0.71786929780E+03  0.25500000920E-02 0.  1.
</event>
<event>
 5   0  0.6615842E-05  0.1692721E+04  0.7818609E-02  0.8765527E-01
        1   -1    0    0  501    0  0.00000000000E+00  0.00000000000E+00  0.34399208282E+03  0.34399208285E+03  0.50400001928E-02 0.  1.
       -1   -1    0    0    0  501  0.00000000000E+00  0.00000000000E+00 -0.20823902626E+04  0.20823902626E+04  0.50400001928E-02 0. -1.
    10030    2    1    2    0    0  0.00000000000E+00  0.00000000000E+00 -0.17383981798E+04  0.24263823455E+04  0.16927206075E+04 0.  0.
        3    1    3    3  502    0  0.18565998069E+03  0.18828825999E+02 -0.20525332342E+04  0.20609989910E+04  0.10100000352E+00 0. -1.
       -3    1    3    3    0  502 -0.18565998069E+03 -0.18828825999E+02  0.31413505441E+03  0.36538335448E+03  0.10100000352E+00 0.  1.
</event>
<event>
 5   0  0.1285639E-04  0.1706049E+04  0.7818609E-02  0.8757922E-01
       -2   -1    0    0    0  501  0.00000000000E+00  0.00000000000E+00  0.63745653075E+03  0.63745653075E+03  0.25500000920E-02 0.  1.
        2   -1    0    0  501    0  0.00000000000E+00  0.00000000000E+00 -0.11414908410E+04  0.11414908410E+04  0.25500000920E-02 0. -1.
    10030    2    1    2    0    0  0.00000000000E+00  0.00000000000E+00 -0.50403431025E+03  0.17789473718E+04  0.17060489927E+04 0.  0.
        4    1    3    3  502    0  0.49820415537E+03 -0.10691449725E+03 -0.96536223939E+03  0.10915878143E+04  0.12699999809E+01 0. -1.
       -4    1    3    3    0  502 -0.49820415537E+03  0.10691449725E+03  0.46132792913E+03  0.68735955747E+03  0.12699999809E+01 0.  1.
</event>
<event>
 5   0  0.1255362E-04  0.1699490E+04  0.7818609E-02  0.8761655E-01
       -2   -1    0    0    0  501  0.00000000000E+00  0.00000000000E+00  0.40815125809E+03  0.40815125810E+03  0.25500000920E-02 0. -1.
        2   -1    0    0  501    0  0.00000000000E+00  0.00000000000E+00 -0.17691158930E+04  0.17691158930E+04  0.25500000920E-02 0.  1.
    10030    2    1    2    0    0  0.00000000000E+00  0.00000000000E+00 -0.13609646349E+04  0.21772671511E+04  0.16994903677E+04 0.  0.
        1    1    3    3  502    0  0.45713340977E+03 -0.36874424453E+03 -0.14672289114E+04  0.15804125887E+04  0.50400001928E-02 0.  1.
       -1    1    3    3    0  502 -0.45713340977E+03  0.36874424453E+03  0.10626427642E+03  0.59685456241E+03  0.50400001928E-02 0. -1.
</event>
<event>
 5   0  0.6615842E-05  0.1696318E+04  0.7818609E-02  0.8763467E-01
        1   -1    0    0  501    0  0.00000000000E+00  0.00000000000E+00  0.19811184030E+04  0.19811184030E+04  0.50400001928E-02 0.  1.
       -1   -1    0    0    0  501  0.00000000000E+00  0.00000000000E+00 -0.36311509722E+03  0.36311509725E+03  0.50400001928E-02 0. -1.
    10030    2    1    2    0    0  0.00000000000E+00  0.00000000000E+00  0.16180033058E+04  0.23442335002E+04  0.16963183682E+04 0.  0.
        3    1    3    3  502    0  0.73472222960E+03  0.30682883754E+03  0.12128852883E+04  0.14508795343E+04  0.10100000352E+00 0.  1.
       -3    1    3    3    0  502 -0.73472222960E+03 -0.30682883754E+03  0.40511801748E+03  0.89335396597E+03  0.10100000352E+00 0. -1.
</event>
<event>
 5   0  0.6834837E-05  0.1693934E+04  0.7818609E-02  0.8764831E-01
       -1   -1    0    0    0  501  0.00000000000E+00  0.00000000000E+00  0.66360519476E+03  0.66360519477E+03  0.50400001928E-02 0.  1.
        1   -1    0    0  501    0  0.00000000000E+00  0.00000000000E+00 -0.10809943760E+04  0.10809943760E+04  0.50400001928E-02 0. -1.
    10030    2    1    2    0    0  0.00000000000E+00  0.00000000000E+00 -0.41738918124E+03  0.17445995708E+04  0.16939344538E+04 0.  0.
        5    1    3    3  502    0 -0.46568642609E+03  0.44213329383E+03 -0.77746749080E+03  0.10083766589E+04  0.46999998093E+01 0. -1.
       -5    1    3    3    0  502  0.46568642609E+03 -0.44213329383E+03  0.36007830956E+03  0.73622291188E+03  0.46999998093E+01 0.  1.
</event>
<event>
 5   0  0.6615842E-05  0.1708584E+04  0.7818609E-02  0.8756484E-01
       -1   -1    0    0    0  501  0.00000000000E+00  0.00000000000E+00  0.47174811233E+03  0.47174811236E+03  0.50400001928E-02 0. -1.
        1   -1    0    0  501    0  0.00000000000E+00  0.00000000000E+00 -0.15470436553E+04  0.15470436553E+04  0.50400001928E-02 0.  1.
    10030    2    1    2    0    0  0.00000000000E+00  0.00000000000E+00 -0.10752955430E+04  0.20187917677E+04  0.17085841204E+04 0.  0.
        3    1    3    3  502    0 -0.40444804381E+03  0.52705006454E+03  0.96943562774E+02  0.67138517651E+03  0.10100000352E+00 0. -1.
       -3    1    3    3    0  502  0.40444804381E+03 -0.52705006454E+03 -0.11722391057E+04  0.13474065912E+04  0.10100000352E+00 0.  1.
</event>
<event>
 5   0  0.4720875E-05  0.1764198E+04  0.7818609E-02  0.8725574E-01
        3   -1    0    0  501    0  0.00000000000E+00  0.00000000000E+00  0.20920053819E+04  0.20920053844E+04  0.10100000352E+00 0. -1.
       -3   -1    0    0    0  501  0.00000000000E+00  0.00000000000E+00 -0.37193915002E+03  0.37193916374E+03  0.10100000352E+00 0.  1.
    10030    2    1    2    0    0  0.00000000000E+00  0.00000000000E+00  0.17200662319E+04  0.24639445481E+04  0.17641980881E+04 0.  0.
        2    1    3    3  502    0  0.68814741342E+03 -0.26446812655E+03  0.18355239042E+03  0.75972477424E+03  0.25500000920E-02 0.  1.
       -2    1    3    3    0  502 -0.68814741342E+03  0.26446812655E+03  0.15365138415E+04  0.17042197739E+04  0.25500000920E-02 0. -1.
</event>
<event>
 5   0  0.1269175E-04  0.1702403E+04  0.7818609E-02  0.8759995E-01
        2   -1    0    0  501    0  0.00000000000E+00  0.00000000000E+00  0.20719261973E+04  0.20719261973E+04  0.25500000920E-02 0.  1.
       -2   -1    0    0    0  501  0.00000000000E+00  0.00000000000E+00 -0.34969572396E+03  0.34969572397E+03  0.25500000920E-02 0. -1.
    10030    2    1    2    0    0  0.00000000000E+00  0.00000000000E+00  0.17222304733E+04  0.24216219212E+04  0.17024026921E+04 0.  0.
        2    1    3    3  502    0  0.49925916610E+03 -0.27278004283E+03 -0.39519230892E+02  0.57028978276E+03  0.25500000920E-02 0. -1.
       -2    1    3    3    0  502 -0.49925916610E+03  0.27278004283E+03  0.17617497042E+04  0.18513321385E+04  0.25500000920E-02 0.  1.
</event>
<event>
 5   0  0.6615842E-05  0.1688045E+04  0.7818609E-02  0.8768212E-01
        1   -1    0    0  501    0  0.00000000000E+00  0.00000000000E+00  0.16720834715E+04  0.16720834715E+04  0.50400001928E-02 0.  1.
       -1   -1    0    0    0  501  0.00000000000E+00  0.00000000000E+00 -0.42603993088E+03  0.42603993091E+03  0.50400001928E-02 0. -1.
    10030    2    1    2    0    0  0.00000000000E+00  0.00000000000E+00  0.12460435407E+04  0.20981234025E+04  0.16880454101E+04 0.  0.
        3    1    3    3  502    0 -0.34703073440E+03  0.73608578285E+03  0.34475597521E+03  0.88380388265E+03  0.10100000352E+00 0. -1.
       -3    1    3    3    0  502  0.34703073440E+03 -0.73608578285E+03  0.90128756545E+03  0.12143195198E+04  0.10100000352E+00 0.  1.
</event>
<event>
 5   0  0.1255362E-04  0.1712387E+04  0.7818609E-02  0.8754331E-01
        2   -1    0    0  501    0  0.00000000000E+00  0.00000000000E+00  0.50378908120E+03  0.50378908120E+03  0.25500000920E-02 0. -1.
       -2   -1    0    0    0  501  0.00000000000E+00  0.00000000000E+00 -0.14551076191E+04  0.14551076191E+04  0.25500000920E-02 0.  1.
    10030    2    1    2    0    0  0.00000000000E+00  0.00000000000E+00 -0.95131853792E+03  0.19588967003E+04  0.17123870246E+04 0.  0.
        1    1    3    3  502    0 -0.28505979570E+03 -0.80602969511E+03 -0.52838530099E+03  0.10050542189E+04  0.50400001928E-02 0. -1.
       -1    1    3    3    0  502  0.28505979570E+03  0.80602969511E+03 -0.42293323692E+03  0.95384248146E+03  0.50400001928E-02 0.  1.
</event>
<event>
 5   0  0.1285639E-04  0.1694947E+04  0.7818609E-02  0.8764251E-01
       -2   -1    0    0    0  501  0.00000000000E+00  0.00000000000E+00  0.84893239461E+03  0.84893239461E+03  0.25500000920E-02 0.  1.
        2   -1    0    0  501    0  0.00000000000E+00  0.00000000000E+00 -0.84601743180E+03  0.84601743181E+03  0.25500000920E-02 0. -1.
    10030    2    1    2    0    0  0.00000000000E+00  0.00000000000E+00  0.29149628071E+01  0.16949498264E+04  0.16949473198E+04 0.  0.
        4    1    3    3  502    0  0.32459329769E+03  0.77205406151E+03  0.13100190697E+03  0.84769770280E+03  0.12699999809E+01 0. -1.
       -4    1    3    3    0  502 -0.32459329769E+03 -0.77205406151E+03 -0.12808694416E+03  0.84725212362E+03  0.12699999809E+01 0.  1.
</event>
<event>
 5   0  0.6834837E-05  0.1810593E+04  0.7818609E-02  0.8700686E-01
        1   -1    0    0  501    0  0.00000000000E+00  0.00000000000E+00  0.10124311903E+04  0.10124311903E+04  0.50400001928E-02 0.  1.
       -1   -1    0    0    0  501  0.00000000000E+00  0.00000000000E+00 -0.80949901248E+03  0.80949901249E+03  0.50400001928E-02 0. -1.
    10030    2    1    2    0    0  0.00000000000E+00  0.00000000000E+00  0.20293217777E+03  0.18219302028E+04  0.18105933268E+04 0.  0.
        5    1    3    3  502    0 -0.19785784315E+03 -0.37995625368E+03 -0.70103952000E+03  0.82157956364E+03  0.46999998093E+01 0. -1.
       -5    1    3    3    0  502  0.19785784315E+03  0.37995625368E+03  0.90397169777E+03  0.10003506391E+04  0.46999998093E+01 0.  1.
</event>
<event>
 5   0  0.1393870E-04  0.1709645E+04  0.7818609E-02  0.8755883E-01
        2   -1    0    0  501    0  0.00000000000E+00  0.00000000000E+00  0.10136449655E+04  0.10136449655E+04  0.25500000920E-02 0.  1.
       -2   -1    0    0    0  501  0.00000000000E+00  0.00000000000E+00 -0.72088485245E+03  0.72088485246E+03  0.25500000920E-02 0. -1.
    10030    2    1    2    0    0  0.00000000000E+00  0.00000000000E+00  0.29276011302E+03  0.17345298179E+04  0.17096447600E+04 0.  0.
        3    1    3    3  502    0  0.22353113325E+03 -0.58577554711E+03  0.73589028468E+03  0.96676454238E+03  0.10100000352E+00 0.  1.
       -3    1    3    3    0  502 -0.22353113325E+03  0.58577554711E+03 -0.44313017166E+03  0.76776527556E+03  0.10100000352E+00 0. -1.
</event>
<event>
 5   0  0.1393870E-04  0.1722727E+04  0.7818609E-02  0.8748507E-01
        2   -1    0    0  501    0  0.00000000000E+00  0.00000000000E+00  0.94796137263E+03  0.94796137263E+03  0.25500000920E-02 0.  1.
       -2   -1    0    0    0  501  0.00000000000E+00  0.00000000000E+00 -0.78267661754E+03  0.78267661754E+03  0.25500000920E-02 0. -1.
    10030    2    1    2    0    0  0.00000000000E+00  0.00000000000E+00  0.16528475509E+03  0.17306379902E+04  0.17227271411E+04 0.  0.
        3    1    3    3  502    0 -0.24155718128E+03 -0.28736370542E+03 -0.69617205188E+03  0.79093824477E+03  0.10100000352E+00 0. -1.
       -3    1    3    3    0  502  0.24155718128E+03  0.28736370542E+03  0.86145680697E+03  0.93969974540E+03  0.10100000352E+00 0.  1.
</event>
<event>
 5   0  0.6539134E-05  0.1705797E+04  0.7818609E-02  0.8758065E-01
        1   -1    0    0  501    0  0.00000000000E+00  0.00000000000E+00  0.75395968621E+03  0.75395968623E+03  0.50400001928E-02 0.  1.
       -1   -1    0    0    0  501  0.00000000000E+00  0.00000000000E+00 -0.96482023469E+03  0.96482023470E+03  0.50400001928E-02 0. -1.
    10030    2    1    2    0    0  0.00000000000E+00  0.00000000000E+00 -0.21086054847E+03  0.17187799209E+04  0.17057966601E+04 0.  0.
        2    1    3    3  502    0  0.55055727400E+03  0.64792958800E+03 -0.37766357618E+02  0.85108892646E+03  0.25500000920E-02 0.  1.
       -2    1    3    3    0  502 -0.55055727400E+03 -0.64792958800E+03 -0.17309419085E+03  0.86769099447E+03  0.25500000920E-02 0. -1.
</event>
<event>
 5   0  0.6834837E-05  0.1701110E+04  0.7818609E-02  0.8760732E-01
       -1   -1    0    0    0  501  0.00000000000E+00  0.00000000000E+00  0.88022370955E+03  0.88022370957E+03  0.50400001928E-02 0.  1.
        1   -1    0    0  501    0  0.00000000000E+00  0.00000000000E+00 -0.82188624067E+03  0.82188624068E+03  0.50400001928E-02 0. -1.
    10030    2    1    2    0    0  0.00000000000E+00  0.00000000000E+00  0.58337468889E+02  0.17021099503E+04  0.17011099384E+04 0.  0.
        5    1    3    3  502    0 -0.50369216381E+02 -0.82292267510E+03 -0.17995862452E+03  0.84388742358E+03  0.46999998093E+01 0. -1.
       -5    1    3    3    0  502  0.50369216381E+02  0.82292267510E+03  0.23829609340E+03  0.85822252667E+03  0.46999998093E+01 0.  1.
</event>
<event>
 5   0  0.6601906E-05  0.1673674E+04  0.7818609E-02  0.8776523E-01
       -1   -1    0    0    0  501  0.00000000000E+00  0.00000000000E+00  0.55770459606E+03  0.55770459608E+03  0.50400001928E-02 0.  1.
        1   -1    0    0  501    0  0.00000000000E+00  0.00000000000E+00 -0.12556753753E+04  0.12556753753E+04  0.50400001928E-02 0. -1.
    10030    2    1    2    0    0  0.00000000000E+00  0.00000000000E+00 -0.69797077927E+03  0.18133799714E+04  0.16736737173E+04 0.  0.
        1    1    3    3  502    0  0.47866711859E+03  0.63353781700E+03 -0.62727951822E+02  0.79650936715E+03  0.50400001928E-02 0.  1.
       -1    1    3    3    0  502 -0.47866711859E+03 -0.63353781700E+03 -0.63524282745E+03  0.10168706043E+04  0.50400001928E-02 0. -1.
</event>
<event>
 5   0  0.1333546E-04  0.1700749E+04  0.7818609E-02  0.8760937E-01
       -2   -1    0    0    0  501  0.00000000000E+00  0.00000000000E+00  0.72796061492E+03  0.72796061492E+03  0.25500000920E-02 0.  1.
        2   -1    0    0  501    0  0.00000000000E+00  0.00000000000E+00 -0.99337397272E+03  0.99337397272E+03  0.25500000920E-02 0. -1.
    10030    2    1    2    0    0  0.00000000000E+00  0.00000000000E+00 -0.26541335780E+03  0.17213345876E+04  0.17007493972E+04 0.  0.
        5    1    3    3  502    0  0.17955455704E+03 -0.22476231894E+03  0.67720205789E+03  0.73578709976E+03  0.46999998093E+01 0.  1.
       -5    1    3    3    0  502 -0.17955455704E+03  0.22476231894E+03 -0.94261541569E+03  0.98554748788E+03  0.46999998093E+01 0. -1.
</event>
<event>
 5   0  0.1393870E-04  0.1706711E+04  0.7818609E-02  0.8757546E-01
       -2   -1    0    0    0  501  0.00000000000E+00  0.00000000000E+00  0.79978587928E+03  0.79978587928E+03  0.25500000920E-02 0.  1.
        2   -1    0    0  501    0  0.00000000000E+00  0.00000000000E+00 -0.91051326653E+03  0.91051326654E+03  0.25500000920E-02 0. -1.
    10030    2    1    2    0    0  0.00000000000E+00  0.00000000000E+00 -0.11072738726E+03  0.17102991458E+04  0.17067110517E+04 0.  0.
        3    1    3    3  502    0  0.39715489175E+03 -0.62052384193E+03  0.37616186502E+03  0.82721194705E+03  0.10100000352E+00 0.  1.
       -3    1    3    3    0  502 -0.39715489175E+03  0.62052384193E+03 -0.48688925228E+03  0.88308719877E+03  0.10100000352E+00 0. -1.
</event>
<event>
 5   0  0.1285639E-04  0.1700260E+04  0.7818609E-02  0.8761216E-01
        2   -1    0    0  501    0  0.00000000000E+00  0.00000000000E+00  0.13357318308E+04  0.13357318308E+04  0.25500000920E-02 0.  1.
       -2   -1    0    0    0  501  0.00000000000E+00  0.00000000000E+00 -0.54106715732E+03  0.54106715733E+03  0.25500000920E-02 0. -1.
    10030    2    1    2    0    0  0.00000000000E+00  0.00000000000E+00  0.79466467352E+03  0.18767989882E+04  0.17002595386E+04 0.  0.
        4    1    3    3  502    0 -0.71028412284E+02  0.66399309897E+03  0.97806398633E+03  0.11842899329E+04  0.12699999809E+01 0.  1.
       -4    1    3    3    0  502  0.71028412284E+02 -0.66399309897E+03 -0.18339931281E+03  0.69250905530E+03  0.12699999809E+01 0. -1.
</event>
<event>
 5   0  0.1393870E-04  0.1697123E+04  0.7818609E-02  0.8763007E-01
       -2   -1    0    0    0  501  0.00000000000E+00  0.00000000000E+00  0.93799435043E+03  0.93799435044E+03  0.25500000920E-02 0. -1.
        2   -1    0    0  501    0  0.00000000000E+00  0.00000000000E+00 -0.76765544157E+03  0.76765544157E+03  0.25500000920E-02 0.  1.
    10030    2    1    2    0    0  0.00000000000E+00  0.00000000000E+00  0.17033890886E+03  0.17056497920E+04  0.16971228209E+04 0.  0.
        3    1    3    3  502    0 -0.16953682467E+03  0.43124102991E+03 -0.62927839652E+03  0.78147480530E+03  0.10100000352E+00 0.  1.
       -3    1    3    3    0  502  0.16953682467E+03 -0.43124102991E+03  0.79961730538E+03  0.92417498671E+03  0.10100000352E+00 0. -1.
</event>
<event>
 5   0  0.6834837E-05  0.1692523E+04  0.7818609E-02  0.8765640E-01
       -1   -1    0    0    0  501  0.00000000000E+00  0.00000000000E+00  0.90439883213E+03  0.90439883214E+03  0.50400001928E-02 0.  1.
        1   -1    0    0  501    0  0.00000000000E+00  0.00000000000E+00 -0.79186164302E+03  0.79186164304E+03  0.50400001928E-02 0. -1.
    10030    2    1    2    0    0  0.00000000000E+00  0.00000000000E+00  0.11253718911E+03  0.16962604752E+04  0.16925232585E+04 0.  0.
        5    1    3    3  502    0 -0.57152226128E+02  0.29443999154E+02  0.90193467090E+03  0.90423534913E+03  0.46999998093E+01 0.  1.
       -5    1    3    3    0  502  0.57152226128E+02 -0.29443999154E+02 -0.78939748179E+03  0.79202512605E+03  0.46999998093E+01 0. -1.
</event>
<event>
 5   0  0.6564887E-05  0.1687074E+04  0.7818609E-02  0.8768771E-01
       -1   -1    0    0    0  501  0.00000000000E+00  0.00000000000E+00  0.81022758190E+03  0.81022758192E+03  0.50400001928E-02 0. -1.
        1   -1    0    0  501    0  0.00000000000E+00  0.00000000000E+00 -0.87821620923E+03  0.87821620924E+03  0.50400001928E-02 0.  1.
    10030    2    1    2    0    0  0.00000000000E+00  0.00000000000E+00 -0.67988627323E+02  0.16884437912E+04  0.16870743856E+04 0.  0.
        4    1    3    3  502    0  0.35192254022E+03  0.39860791166E+03  0.62137738753E+03  0.81783201954E+03  0.12699999809E+01 0. -1.
       -4    1    3    3    0  502 -0.35192254022E+03 -0.39860791166E+03 -0.68936601485E+03  0.87061177162E+03  0.12699999809E+01 0.  1.
</event>
<event>
 5   0  0.6834837E-05  0.1700027E+04  0.7818609E-02  0.8761349E-01
        1   -1    0    0  501    0  0.00000000000E+00  0.00000000000E+00  0.10664335362E+04  0.10664335362E+04  0.50400001928E-02 0.  1.
       -1   -1    0    0    0  501  0.00000000000E+00  0.00000000000E+00 -0.67751369385E+03  0.67751369387E+03  0.50400001928E-02 0. -1.
    10030    2    1    2    0    0  0.00000000000E+00  0.00000000000E+00  0.38891984235E+03  0.17439472301E+04  0.17000274402E+04 0.  0.
        5    1    3    3  502    0  0.20934703458E+02 -0.53083493752E+03  0.87513605996E+03  0.10237720479E+04  0.46999998093E+01 0.  1.
       -5    1    3    3    0  502 -0.20934703458E+02  0.53083493752E+03 -0.48621621761E+03  0.72017518214E+03  0.46999998093E+01 0. -1.
</event>
<event>
 5   0  0.6564887E-05  0.1686520E+04  0.7818609E-02  0.8769090E-01
       -1   -1    0    0    0  501  0.00000000000E+00  0.00000000000E+00  0.62336104458E+03  0.62336104460E+03  0.50400001928E-02 0. -1.
        1   -1    0    0  501    0  0.00000000000E+00  0.00000000000E+00 -0.11407311219E+04  0.11407311219E+04  0.50400001928E-02 0.  1.
    10030    2    1    2    0    0  0.00000000000E+00  0.00000000000E+00 -0.51737007733E+03  0.17640921665E+04  0.16865199006E+04 0.  0.
        4    1    3    3  502    0 -0.41787298625E+03 -0.21867150145E+03  0.47250295549E+03  0.66760445926E+03  0.12699999809E+01 0. -1.
       -4    1    3    3    0  502  0.41787298625E+03  0.21867150145E+03 -0.98987303281E+03  0.10964877073E+04  0.12699999809E+01 0.  1.
</event>
<event>
 5   0  0.1393870E-04  0.1696998E+04  0.7818609E-02  0.8763079E-01
        2   -1    0    0  501    0  0.00000000000E+00  0.00000000000E+00  0.13276805160E+04  0.13276805161E+04  0.25500000920E-02 0.  1.
       -2   -1    0    0    0  501  0.00000000000E+00  0.00000000000E+00 -0.54226170030E+03  0.54226170030E+03  0.25500000920E-02 0. -1.
    10030    2    1    2    0    0  0.00000000000E+00  0.00000000000E+00  0.78541881575E+03  0.18699422164E+04  0.16969976949E+04 0.  0.
        3    1    3    3  502    0  0.64322793668E+03  0.14820263350E+02  0.10022455496E+04  0.11909903319E+04  0.10100000352E+00 0.  1.
       -3    1    3    3    0  502 -0.64322793668E+03 -0.14820263350E+02 -0.21682673384E+03  0.67895188448E+03  0.10100000352E+00 0. -1.
</event>
<event>
 5   0  0.6615842E-05  0.1662536E+04  0.7818609E-02  0.8783025E-01
        1   -1    0    0  501    0  0.00000000000E+00  0.00000000000E+00  0.13725564604E+04  0.13725564604E+04  0.50400001928E-02 0. -1.
       -1   -1    0    0    0  501  0.00000000000E+00  0.00000000000E+00 -0.50344500160E+03  0.50344500162E+03  0.50400001928E-02 0.  1.
    10030    2    1    2    0    0  0.00000000000E+00  0.00000000000E+00  0.86911145879E+03  0.18760014620E+04  0.16625362425E+04 0.  0.
        3    1    3    3  502    0 -0.93002401219E+02 -0.75377903682E+03  0.53273632999E+02  0.76136086920E+03  0.10100000352E+00 0.  1.
       -3    1    3    3    0  502  0.93002401219E+02  0.75377903682E+03  0.81583782580E+03  0.11146405928E+04  0.10100000352E+00 0. -1.
</event>
<event>
 5   0  0.4720875E-05  0.1703840E+04  0.7818609E-02  0.8759177E-01
        4   -1    0    0  501    0  0.00000000000E+00  0.00000000000E+00  0.87559814828E+03  0.87559906930E+03  0.12699999809E+01 0. -1.
       -4   -1    0    0    0  501  0.00000000000E+00  0.00000000000E+00 -0.82888011833E+03  0.82888109127E+03  0.12699999809E+01 0.  1.
    10030    2    1    2    0    0  0.00000000000E+00  0.00000000000E+00  0.46718029944E+02  0.17044801606E+04  0.17038397940E+04 0.  0.
        4    1    3    3  502    0  0.81691276996E+03  0.94782788719E+02  0.24578386454E+03  0.85833651427E+03  0.12699999809E+01 0. -1.
       -4    1    3    3    0  502 -0.81691276996E+03 -0.94782788719E+02 -0.19906583460E+03  0.84614364630E+03  0.12699999809E+01 0.  1.
</event>
<event>
 5   0  0.1393870E-04  0.1686752E+04  0.7818609E-02  0.8768957E-01
        2   -1    0    0  501    0  0.00000000000E+00  0.00000000000E+00  0.20434173273E+04  0.20434173273E+04  0.25500000920E-02 0. -1.
       -2   -1    0    0    0  501  0.00000000000E+00  0.00000000000E+00 -0.34808492284E+03  0.34808492285E+03  0.25500000920E-02 0.  1.
    10030    2    1    2    0    0  0.00000000000E+00  0.00000000000E+00  0.16953324044E+04  0.23915022501E+04  0.16867516269E+04 0.  0.
        3    1    3    3  502    0 -0.84099132178E+03 -0.56135669035E+02  0.88936867546E+03  0.12253139466E+04  0.10100000352E+00 0. -1.
       -3    1    3    3    0  502  0.84099132178E+03  0.56135669035E+02  0.80596372898E+03  0.11661883035E+04  0.10100000352E+00 0.  1.
</event>
<event>
 5   0  0.6615842E-05  0.1761459E+04  0.7818609E-02  0.8727068E-01
        1   -1    0    0  501    0  0.00000000000E+00  0.00000000000E+00  0.10662597705E+04  0.10662597705E+04  0.50400001928E-02 0.  1.
       -1   -1    0    0    0  501  0.00000000000E+00  0.00000000000E+00 -0.72748167081E+03  0.72748167083E+03  0.50400001928E-02 0. -1.
    10030    2    1    2    0    0  0.00000000000E+00  0.00000000000E+00  0.33877809966E+03  0.17937414413E+04  0.17614589855E+04 0.  0.
        3    1    3    3  502    0  0.69919480533E+03  0.20787544921E+03 -0.33321377397E+03  0.80194576347E+03  0.10100000352E+00 0. -1.
       -3    1    3    3    0  502 -0.69919480533E+03 -0.20787544921E+03  0.67199187363E+03  0.99179567785E+03  0.10100000352E+00 0.  1.
</event>
<event>
 5   0  0.1285639E-04  0.1702061E+04  0.7818609E-02  0.8760190E-01
        2   -1    0    0  501    0  0.00000000000E+00  0.00000000000E+00  0.66715047893E+03  0.66715047894E+03  0.25500000920E-02 0.  1.
       -2   -1    0    0    0  501  0.00000000000E+00  0.00000000000E+00 -0.10855916754E+04  0.10855916754E+04  0.25500000920E-02 0. -1.
    10030    2    1    2    0    0  0.00000000000E+00  0.00000000000E+00 -0.41844119648E+03  0.17527421544E+04  0.17020611108E+04 0.  0.
        4    1    3    3  502    0  0.19019526510E+03  0.71889690337E+03  0.21694307532E+03  0.77463082005E+03  0.12699999809E+01 0.  1.
       -4    1    3    3    0  502 -0.19019526510E+03 -0.71889690337E+03 -0.63538427181E+03  0.97811133431E+03  0.12699999809E+01 0. -1.
</event>
<event>
 5   0  0.4720875E-05  0.1654283E+04  0.7818609E-02  0.8787877E-01
        4   -1    0    0  501    0  0.00000000000E+00  0.00000000000E+00  0.80497147114E+03  0.80497247298E+03  0.12699999809E+01 0.  1.
       -4   -1    0    0    0  501  0.00000000000E+00  0.00000000000E+00 -0.84991968786E+03  0.84992063672E+03  0.12699999809E+01 0. -1.
    10030    2    1    2    0    0  0.00000000000E+00  0.00000000000E+00 -0.44948216723E+02  0.16548931097E+04  0.16542825824E+04 0.  0.
        3    1    3    3  502    0 -0.18440654139E+03  0.75040023665E+03 -0.31763624586E+03  0.83546339391E+03  0.10100000352E+00 0. -1.
       -3    1    3    3    0  502  0.18440654139E+03 -0.75040023665E+03  0.27268802914E+03  0.81942971579E+03  0.10100000352E+00 0.  1.
</event>
<event>
 5   0  0.6539134E-05  0.1698812E+04  0.7818609E-02  0.8762042E-01
        1   -1    0    0  501    0  0.00000000000E+00  0.00000000000E+00  0.12289175217E+04  0.12289175217E+04  0.50400001928E-02 0. -1.
       -1   -1    0    0    0  501  0.00000000000E+00  0.00000000000E+00 -0.58709455505E+03  0.58709455508E+03  0.50400001928E-02 0.  1.
    10030    2    1    2    0    0  0.00000000000E+00  0.00000000000E+00  0.64182296663E+03  0.18160120768E+04  0.16988122741E+04 0.  0.
        2    1    3    3  502    0  0.43675496484E+03  0.55673083528E+03 -0.18138456365E+03  0.73048236268E+03  0.25500000920E-02 0.  1.
       -2    1    3    3    0  502 -0.43675496484E+03 -0.55673083528E+03  0.82320753027E+03  0.10855297141E+04  0.25500000920E-02 0. -1.
</event>
<event>
 5   0  0.6564887E-05  0.1698497E+04  0.7818609E-02  0.8762222E-01
       -1   -1    0    0    0  501  0.00000000000E+00  0.00000000000E+00  0.18296868410E+04  0.18296868410E+04  0.50400001928E-02 0.  1.
        1   -1    0    0  501    0  0.00000000000E+00  0.00000000000E+00 -0.39417835555E+03  0.39417835558E+03  0.50400001928E-02 0. -1.
    10030    2    1    2    0    0  0.00000000000E+00  0.00000000000E+00  0.14355084855E+04  0.22238651966E+04  0.16984969240E+04 0.  0.
        4    1    3    3  502    0 -0.79629063801E+03  0.77673036503E+02  0.10906431286E+04  0.13526329612E+04  0.12699999809E+01 0.  1.
       -4    1    3    3    0  502  0.79629063801E+03 -0.77673036503E+02  0.34486535685E+03  0.87123223542E+03  0.12699999809E+01 0. -1.
</event>
<event>
 5   0  0.6615842E-05  0.1702014E+04  0.7818609E-02  0.8760216E-01
       -1   -1    0    0    0  501  0.00000000000E+00  0.00000000000E+00  0.14959322215E+04  0.14959322215E+04  0.50400001928E-02 0. -1.
        1   -1    0    0  501    0  0.00000000000E+00  0.00000000000E+00 -0.48412174504E+03  0.48412174507E+03  0.50400001928E-02 0.  1.
    10030    2    1    2    0    0  0.00000000000E+00  0.00000000000E+00  0.10118104764E+04  0.19800539666E+04  0.17020144742E+04 0.  0.
        3    1    3    3  502    0  0.67127073182E+03 -0.15661385540E+03  0.10865146735E+04  0.12867192549E+04  0.10100000352E+00 0. -1.
       -3    1    3    3    0  502 -0.67127073182E+03  0.15661385540E+03 -0.74704197041E+02  0.69333471164E+03  0.10100000352E+00 0.  1.
</event>
<event>
 5   0  0.6834837E-05  0.1707662E+04  0.7818609E-02  0.8757007E-01
       -1   -1    0    0    0  501  0.00000000000E+00  0.00000000000E+00  0.45828373696E+03  0.45828373699E+03  0.50400001928E-02 0. -1.
        1   -1    0    0  501    0  0.00000000000E+00  0.00000000000E+00 -0.15907764240E+04  0.15907764240E+04  0.50400001928E-02 0.  1.
    10030    2    1    2    0    0  0.00000000000E+00  0.00000000000E+00 -0.11324926870E+04  0.20490601610E+04  0.17076615172E+04 0.  0.
        5    1    3    3  502    0  0.53580801250E+03 -0.53278108917E+03 -0.10432947800E+04  0.12881894283E+04  0.46999998093E+01 0.  1.
       -5    1    3    3    0  502 -0.53580801250E+03  0.53278108917E+03 -0.89197907025E+02  0.76087073268E+03  0.46999998093E+01 0. -1.
</event>
<event>
 5   0  0.1255362E-04  0.1699217E+04  0.7818609E-02  0.8761811E-01
        2   -1    0    0  501    0  0.00000000000E+00  0.00000000000E+00  0.80330144397E+03  0.80330144398E+03  0.25500000920E-02 0.  1.
       -2   -1    0    0    0  501  0.00000000000E+00  0.00000000000E+00 -0.89858548620E+03  0.89858548620E+03  0.25500000920E-02 0. -1.
    10030    2    1    2    0    0  0.00000000000E+00  0.00000000000E+00 -0.95284042222E+02  0.17018869302E+04  0.16992174888E+04 0.  0.
        1    1    3    3  502    0 -0.45930474740E+03 -0.33274412935E+03 -0.68121425405E+03  0.88641545933E+03  0.50400001928E-02 0. -1.
       -1    1    3    3    0  502  0.45930474740E+03  0.33274412935E+03  0.58593021182E+03  0.81547147084E+03  0.50400001928E-02 0.  1.
</event>
<event>
 5   0  0.6601906E-05  0.1697936E+04  0.7818609E-02  0.8762543E-01
       -1   -1    0    0    0  501  0.00000000000E+00  0.00000000000E+00  0.10485654541E+04  0.10485654541E+04  0.50400001928E-02 0. -1.
        1   -1    0    0  501    0  0.00000000000E+00  0.00000000000E+00 -0.68736423197E+03  0.68736423199E+03  0.50400001928E-02 0.  1.
    10030    2    1    2    0    0  0.00000000000E+00  0.00000000000E+00  0.36120122214E+03  0.17359296861E+04  0.16979356738E+04 0.  0.
        1    1    3    3  502    0  0.57320606568E+03  0.23673891763E+02 -0.45919865799E+03  0.73483947527E+03  0.50400001928E-02 0.  1.
       -1    1    3    3    0  502 -0.57320606568E+03 -0.23673891763E+02  0.82039988013E+03  0.10010902108E+04  0.50400001928E-02 0. -1.
</event>
<event>
 5   0  0.1255362E-04  0.1694828E+04  0.7818609E-02  0.8764320E-01
       -2   -1    0    0    0  501  0.00000000000E+00  0.00000000000E+00  0.93258987623E+03  0.93258987623E+03  0.25500000920E-02 0.  1.
        2   -1    0    0  501    0  0.00000000000E+00  0.00000000000E+00 -0.77001708931E+03  0.77001708931E+03  0.25500000920E-02 0. -1.
    10030    2    1    2    0    0  0.00000000000E+00  0.00000000000E+00  0.16257278692E+03  0.17026069655E+04  0.16948275924E+04 0.  0.
        1    1    3    3  502    0  0.45655723513E+03 -0.54195173921E+03 -0.38555510177E+03  0.80672729786E+03  0.50400001928E-02 0. -1.
       -1    1    3    3    0  502 -0.45655723513E+03  0.54195173921E+03  0.54812788869E+03  0.89587966768E+03  0.50400001928E-02 0.  1.
</event>
<event>
 5   0  0.6615842E-05  0.1695153E+04  0.7818609E-02  0.8764133E-01
       -1   -1    0    0    0  501  0.00000000000E+00  0.00000000000E+00  0.34586004858E+03  0.34586004862E+03  0.50400001928E-02 0.  1.
        1   -1    0    0  501    0  0.00000000000E+00  0.00000000000E+00 -0.20771009481E+04  0.20771009481E+04  0.50400001928E-02 0. -1.
    10030    2    1    2    0    0  0.00000000000E+00  0.00000000000E+00 -0.17312408995E+04  0.24229609968E+04  0.16951533676E+04 0.  0.
        3    1    3    3  502    0  0.57305901074E+03  0.30086383521E+03 -0.16478144579E+04  0.17703695024E+04  0.10100000352E+00 0. -1.
       -3    1    3    3    0  502 -0.57305901074E+03 -0.30086383521E+03 -0.83426441630E+02  0.65259149435E+03  0.10100000352E+00 0.  1.
</event>
<event>
 5   0  0.6539134E-05  0.1696334E+04  0.7818609E-02  0.8763458E-01
        1   -1    0    0  501    0  0.00000000000E+00  0.00000000000E+00  0.14131924836E+04  0.14131924837E+04  0.50400001928E-02 0. -1.
       -1   -1    0    0    0  501  0.00000000000E+00  0.00000000000E+00 -0.50905098273E+03  0.50905098275E+03  0.50400001928E-02 0.  1.
    10030    2    1    2    0    0  0.00000000000E+00  0.00000000000E+00  0.90414150091E+03  0.19222434664E+04  0.16963337203E+04 0.  0.
        2    1    3    3  502    0 -0.47813867018E+02 -0.23822444868E+03  0.13729107565E+04  0.13942456739E+04  0.25500000920E-02 0. -1.
       -2    1    3    3    0  502  0.47813867018E+02  0.23822444868E+03 -0.46876925563E+03  0.52799779248E+03  0.25500000920E-02 0.  1.
</event>
<event>
 5   0  0.6834837E-05  0.1642079E+04  0.7818609E-02  0.8795106E-01
        1   -1    0    0  501    0  0.00000000000E+00  0.00000000000E+00  0.13568264672E+04  0.13568264672E+04  0.50400001928E-02 0. -1.
       -1   -1    0    0    0  501  0.00000000000E+00  0.00000000000E+00 -0.49682552068E+03  0.49682552070E+03  0.50400001928E-02 0.  1.
    10030    2    1    2    0    0  0.00000000000E+00  0.00000000000E+00  0.86000094649E+03  0.18536519879E+04  0.16420791894E+04 0.  0.
        5    1    3    3  502    0  0.30240083378E+03  0.64727614253E+03 -0.26688276465E+02  0.71494546859E+03  0.46999998093E+01 0.  1.
       -5    1    3    3    0  502 -0.30240083378E+03 -0.64727614253E+03  0.88668922295E+03  0.11387065193E+04  0.46999998093E+01 0. -1.
</event>
<event>
 5   0  0.1333546E-04  0.1672456E+04  0.7818609E-02  0.8777232E-01
       -2   -1    0    0    0  501  0.00000000000E+00  0.00000000000E+00  0.37977357585E+03  0.37977357586E+03  0.25500000920E-02 0. -1.
        2   -1    0    0  501    0  0.00000000000E+00  0.00000000000E+00 -0.18412995756E+04  0.18412995756E+04  0.25500000920E-02 0.  1.
    10030    2    1    2    0    0  0.00000000000E+00  0.00000000000E+00 -0.14615259997E+04  0.22210731514E+04  0.16724555887E+04 0.  0.
        5    1    3    3  502    0 -0.34409380459E+02 -0.83470123174E+03 -0.68206421614E+03  0.10784914634E+04  0.46999998093E+01 0. -1.
       -5    1    3    3    0  502  0.34409380459E+02  0.83470123174E+03 -0.77946178356E+03  0.11425816880E+04  0.46999998093E+01 0.  1.
</event>
<event>
 5   0  0.1333546E-04  0.1698047E+04  0.7818609E-02  0.8762479E-01
       -2   -1    0    0    0  501  0.00000000000E+00  0.00000000000E+00  0.97740503947E+03  0.97740503948E+03  0.25500000920E-02 0. -1.
        2   -1    0    0  501    0  0.00000000000E+00  0.00000000000E+00 -0.73750460669E+03  0.73750460670E+03  0.25500000920E-02 0.  1.
    10030    2    1    2    0    0  0.00000000000E+00  0.00000000000E+00  0.23990043278E+03  0.17149096462E+04  0.16980467829E+04 0.  0.
        5    1    3    3  502    0  0.53275828117E+03 -0.65057689022E+03  0.23831889452E+03  0.87401353635E+03  0.46999998093E+01 0. -1.
       -5    1    3    3    0  502 -0.53275828117E+03  0.65057689022E+03  0.15815382617E+01  0.84089610982E+03  0.46999998093E+01 0.  1.
</event>
<event>
 5   0  0.1333546E-04  0.1690543E+04  0.7818609E-02  0.8766776E-01
       -2   -1    0    0    0  501  0.00000000000E+00  0.00000000000E+00  0.49450913452E+03  0.49450913453E+03  0.25500000920E-02 0. -1.
        2   -1    0    0  501    0  0.00000000000E+00  0.00000000000E+00 -0.14448346392E+04  0.14448346392E+04  0.25500000920E-02 0.  1.
    10030    2    1    2    0    0  0.00000000000E+00  0.00000000000E+00 -0.95032550468E+03  0.19393437737E+04  0.16905430216E+04 0.  0.
        5    1    3    3  502    0  0.35321522134E+03  0.19090217873E+03  0.37811831799E+03  0.55154345870E+03  0.46999998093E+01 0. -1.
       -5    1    3    3    0  502 -0.35321522134E+03 -0.19090217873E+03 -0.13284438227E+04  0.13878003150E+04  0.46999998093E+01 0.  1.
</event>
<event>
 5   0  0.6564887E-05  0.1697734E+04  0.7818609E-02  0.8762658E-01
        1   -1    0    0  501    0  0.00000000000E+00  0.00000000000E+00  0.17759813275E+04  0.17759813275E+04  0.50400001928E-02 0.  1.
       -1   -1    0    0    0  501  0.00000000000E+00  0.00000000000E+00 -0.40573345427E+03  0.40573345430E+03  0.50400001928E-02 0. -1.
    10030    2    1    2    0    0  0.00000000000E+00  0.00000000000E+00  0.13702478732E+04  0.21817147818E+04  0.16977338293E+04 0.  0.
        4    1    3    3  502    0 -0.69104485875E+03  0.38673293536E+03  0.29224386589E+03  0.84410511795E+03  0.12699999809E+01 0.  1.
       -4    1    3    3    0  502  0.69104485875E+03 -0.38673293536E+03  0.10780040073E+04  0.13376096638E+04  0.12699999809E+01 0. -1.
</event>
<event>
 5   0  0.1269175E-04  0.1662254E+04  0.7818609E-02  0.8783190E-01
       -2   -1    0    0    0  501  0.00000000000E+00  0.00000000000E+00  0.27937291293E+03  0.27937291294E+03  0.25500000920E-02 0.  1.
        2   -1    0    0  501    0  0.00000000000E+00  0.00000000000E+00 -0.24725820000E+04  0.24725820000E+04  0.25500000920E-02 0. -1.
    10030    2    1    2    0    0  0.00000000000E+00  0.00000000000E+00 -0.21932090871E+04  0.27519549129E+04  0.16622544159E+04 0.  0.
        2    1    3    3  502    0 -0.24387768902E+03 -0.15347232224E+03 -0.23872399381E+04  0.24045674462E+04  0.25500000920E-02 0. -1.
       -2    1    3    3    0  502  0.24387768902E+03  0.15347232224E+03  0.19403085107E+03  0.34738746677E+03  0.25500000920E-02 0.  1.
</event>
<event>
 5   0  0.1393870E-04  0.1701436E+04  0.7818609E-02  0.8760546E-01
        2   -1    0    0  501    0  0.00000000000E+00  0.00000000000E+00  0.20795962561E+04  0.20795962561E+04  0.25500000920E-02 0. -1.
       -2   -1    0    0    0  501  0.00000000000E+00  0.00000000000E+00 -0.34801050805E+03  0.34801050805E+03  0.25500000920E-02 0.  1.
    10030    2    1    2    0    0  0.00000000000E+00  0.00000000000E+00  0.17315857480E+04  0.24276067641E+04  0.17014362752E+04 0.  0.
        3    1    3    3  502    0 -0.51810015379E+03  0.66779875902E+03  0.10036720239E+04  0.13121510941E+04  0.10100000352E+00 0. -1.
       -3    1    3    3    0  502  0.51810015379E+03 -0.66779875902E+03  0.72791372409E+03  0.11154556700E+04  0.10100000352E+00 0.  1.
</event>
<event>
 5   0  0.6601906E-05  0.1700414E+04  0.7818609E-02  0.8761128E-01
        1   -1    0    0  501    0  0.00000000000E+00  0.00000000000E+00  0.10495983426E+04  0.10495983426E+04  0.50400001928E-02 0. -1.
       -1   -1    0    0    0  501  0.00000000000E+00  0.00000000000E+00 -0.68869396452E+03  0.68869396454E+03  0.50400001928E-02 0.  1.
    10030    2    1    2    0    0  0.00000000000E+00  0.00000000000E+00  0.36090437806E+03  0.17382923071E+04  0.17004141187E+04 0.  0.
        1    1    3    3  502    0  0.24149282955E+03  0.73129755504E+03 -0.18776178882E+03  0.79269754011E+03  0.50400001928E-02 0.  1.
       -1    1    3    3    0  502 -0.24149282955E+03 -0.73129755504E+03  0.54866616688E+03  0.94559476703E+03  0.50400001928E-02 0. -1.
</event>
<event>
 5   0  0.1393870E-04  0.1694934E+04  0.7818609E-02  0.8764259E-01
        2   -1    0    0  501    0  0.00000000000E+00  0.00000000000E+00  0.14022990267E+04  0.14022990267E+04  0.25500000920E-02 0.  1.
       -2   -1    0    0    0  501  0.00000000000E+00  0.00000000000E+00 -0.51215902641E+03  0.51215902641E+03  0.25500000920E-02 0. -1.
    10030    2    1    2    0    0  0.00000000000E+00  0.00000000000E+00  0.89014000027E+03  0.19144580531E+04  0.16949337500E+04 0.  0.
        3    1    3    3  502    0 -0.72728790805E+03  0.22091802174E+02 -0.45671866398E+02  0.72905533295E+03  0.10100000352E+00 0. -1.
       -3    1    3    3    0  502  0.72728790805E+03 -0.22091802174E+02  0.93581186666E+03  0.11854027201E+04  0.10100000352E+00 0.  1.
</event>
<event>
 5   0  0.6564887E-05  0.1697423E+04  0.7818609E-02  0.8762835E-01
       -1   -1    0    0    0  501  0.00000000000E+00  0.00000000000E+00  0.62300263743E+03  0.62300263745E+03  0.50400001928E-02 0. -1.
        1   -1    0    0  501    0  0.00000000000E+00  0.00000000000E+00 -0.11561928878E+04  0.11561928879E+04  0.50400001928E-02 0.  1.
    10030    2    1    2    0    0  0.00000000000E+00  0.00000000000E+00 -0.53319025042E+03  0.17791955253E+04  0.16974230098E+04 0.  0.
        4    1    3    3  502    0 -0.47539679688E+03  0.69922067589E+03 -0.18958505474E+03  0.86651934425E+03  0.12699999809E+01 0.  1.
       -4    1    3    3    0  502  0.47539679688E+03 -0.69922067589E+03 -0.34360519568E+03  0.91267618106E+03  0.12699999809E+01 0. -1.
</event>
<event>
 5   0  0.1333546E-04  0.1701343E+04  0.7818609E-02  0.8760599E-01
        2   -1    0    0  501    0  0.00000000000E+00  0.00000000000E+00  0.69553712135E+03  0.69553712136E+03  0.25500000920E-02 0. -1.
       -2   -1    0    0    0  501  0.00000000000E+00  0.00000000000E+00 -0.10404071069E+04  0.10404071069E+04  0.25500000920E-02 0.  1.
    10030    2    1    2    0    0  0.00000000000E+00  0.00000000000E+00 -0.34486998555E+03  0.17359442283E+04  0.17013427217E+04 0.  0.
        5    1    3    3  502    0  0.14147837898E+03 -0.19158528475E+03 -0.10056822071E+04  0.10335085122E+04  0.46999998093E+01 0.  1.
       -5    1    3    3    0  502 -0.14147837898E+03  0.19158528475E+03  0.66081222157E+03  0.70243571608E+03  0.46999998093E+01 0. -1.
</event>
<event>
 5   0  0.6615842E-05  0.1713814E+04  0.7818609E-02  0.8753525E-01
        1   -1    0    0  501    0  0.00000000000E+00  0.00000000000E+00  0.79366727122E+03  0.79366727124E+03  0.50400001928E-02 0.  1.
       -1   -1    0    0    0  501  0.00000000000E+00  0.00000000000E+00 -0.92518537758E+03  0.92518537760E+03  0.50400001928E-02 0. -1.
    10030    2    1    2    0    0  0.00000000000E+00  0.00000000000E+00 -0.13151810636E+03  0.17188526488E+04  0.17138137052E+04 0.  0.
        3    1    3    3  502    0 -0.48553208655E+03 -0.12682159226E+03  0.63087963900E+03  0.80612297600E+03  0.10100000352E+00 0.  1.
       -3    1    3    3    0  502  0.48553208655E+03  0.12682159226E+03 -0.76239774536E+03  0.91272967283E+03  0.10100000352E+00 0. -1.
</event>
<event>
 5   0  0.1269175E-04  0.1694343E+04  0.7818609E-02  0.8764597E-01
       -2   -1    0    0    0  501  0.00000000000E+00  0.00000000000E+00  0.11251661773E+04  0.11251661773E+04  0.25500000920E-02 0.  1.
        2   -1    0    0  501    0  0.00000000000E+00  0.00000000000E+00 -0.63786111175E+03  0.63786111176E+03  0.25500000920E-02 0. -1.
    10030    2    1    2    0    0  0.00000000000E+00  0.00000000000E+00  0.48730506550E+03  0.17630272890E+04  0.16943432341E+04 0.  0.
        2    1    3    3  502    0  0.35128735980E+03  0.77086313803E+03  0.25216728189E+03  0.88386714205E+03  0.25500000920E-02 0.  1.
       -2    1    3    3    0  502 -0.35128735980E+03 -0.77086313803E+03  0.23513778361E+03  0.87916014697E+03  0.25500000920E-02 0. -1.
</event>
<event>
 5   0  0.6834837E-05  0.1696305E+04  0.7818609E-02  0.8763475E-01
        1   -1    0    0  501    0  0.00000000000E+00  0.00000000000E+00  0.14779838595E+04  0.14779838595E+04  0.50400001928E-02 0.  1.
       -1   -1    0    0    0  501  0.00000000000E+00  0.00000000000E+00 -0.48671888994E+03  0.48671888996E+03  0.50400001928E-02 0. -1.
    10030    2    1    2    0    0  0.00000000000E+00  0.00000000000E+00  0.99126496951E+03  0.19647027494E+04  0.16963050002E+04 0.  0.
        5    1    3    3  502    0  0.17623597762E+03 -0.74322692198E+03  0.68664842804E+02  0.76693045839E+03  0.46999998093E+01 0. -1.
       -5    1    3    3    0  502 -0.17623597762E+03  0.74322692198E+03  0.92260012671E+03  0.11977722910E+04  0.46999998093E+01 0.  1.
</event>
<event>
 5   0  0.6539134E-05  0.1704795E+04  0.7818609E-02  0.8758634E-01
        1   -1    0    0  501    0  0.00000000000E+00  0.00000000000E+00  0.19162198892E+04  0.19162198892E+04  0.50400001928E-02 0.  1.
       -1   -1    0    0    0  501  0.00000000000E+00  0.00000000000E+00 -0.37917448476E+03  0.37917448479E+03  0.50400001928E-02 0. -1.
    10030    2    1    2    0    0  0.00000000000E+00  0.00000000000E+00  0.15370454045E+04  0.22953943740E+04  0.17047952243E+04 0.  0.
        2    1    3    3  502    0 -0.53188415322E+03 -0.64656433419E+03  0.98410146570E+03  0.12920533602E+04  0.25500000920E-02 0.  1.
       -2    1    3    3    0  502  0.53188415322E+03  0.64656433419E+03  0.55294393878E+03  0.10033410139E+04  0.25500000920E-02 0. -1.
</event>
<event>
 5   0  0.6834837E-05  0.1707363E+04  0.7818609E-02  0.8757176E-01
       -1   -1    0    0    0  501  0.00000000000E+00  0.00000000000E+00  0.10934939153E+04  0.10934939153E+04  0.50400001928E-02 0. -1.
        1   -1    0    0  501    0  0.00000000000E+00  0.00000000000E+00 -0.66646203657E+03  0.66646203658E+03  0.50400001928E-02 0.  1.
    10030    2    1    2    0    0  0.00000000000E+00  0.00000000000E+00  0.42703187872E+03  0.17599559519E+04  0.17073630918E+04 0.  0.
        5    1    3    3  502    0 -0.13920169811E+03  0.27019708027E+03 -0.60878269647E+03  0.68045722603E+03  0.46999998093E+01 0.  1.
       -5    1    3    3    0  502  0.13920169811E+03 -0.27019708027E+03  0.10358145752E+04  0.10794987259E+04  0.46999998093E+01 0. -1.
</event>
<event>
 5   0  0.1333546E-04  0.1700379E+04  0.7818609E-02  0.8761148E-01
       -2   -1    0    0    0  501  0.00000000000E+00  0.00000000000E+00  0.69759247633E+03  0.69759247633E+03  0.25500000920E-02 0.  1.
        2   -1    0    0  501    0  0.00000000000E+00  0.00000000000E+00 -0.10361666409E+04  0.10361666409E+04  0.25500000920E-02 0. -1.
    10030    2    1    2    0    0  0.00000000000E+00  0.00000000000E+00 -0.33857416458E+03  0.17337591172E+04  0.17003788436E+04 0.  0.
        5    1    3    3  502    0 -0.46708285646E+03  0.54792707090E+03  0.29170513743E+03  0.77685548658E+03  0.46999998093E+01 0.  1.
       -5    1    3    3    0  502  0.46708285646E+03 -0.54792707090E+03 -0.63027930201E+03  0.95690363066E+03  0.46999998093E+01 0. -1.
</event>
<event>
 5   0  0.6834837E-05  0.1694549E+04  0.7818609E-02  0.8764479E-01
        1   -1    0    0  501    0  0.00000000000E+00  0.00000000000E+00  0.14972217500E+04  0.14972217500E+04  0.50400001928E-02 0. -1.
       -1   -1    0    0    0  501  0.00000000000E+00  0.00000000000E+00 -0.47947083702E+03  0.47947083705E+03  0.50400001928E-02 0.  1.
    10030    2    1    2    0    0  0.00000000000E+00  0.00000000000E+00  0.10177509130E+04  0.19766925871E+04  0.16945491031E+04 0.  0.
        5    1    3    3  502    0 -0.12220690700E+03 -0.18431075559E+03 -0.44519590779E+03  0.49711816408E+03  0.46999998093E+01 0.  1.
       -5    1    3    3    0  502  0.12220690700E+03  0.18431075559E+03  0.14629468208E+04  0.14795744230E+04  0.46999998093E+01 0. -1.
</event>
<event>
 5   0  0.1255362E-04  0.1709967E+04  0.7818609E-02  0.8755700E-01
       -2   -1    0    0    0  501  0.00000000000E+00  0.00000000000E+00  0.73489048644E+03  0.73489048644E+03  0.25500000920E-02 0.  1.
        2   -1    0    0  501    0  0.00000000000E+00  0.00000000000E+00 -0.99470198741E+03  0.99470198742E+03  0.25500000920E-02 0. -1.
    10030    2    1    2    0    0  0.00000000000E+00  0.00000000000E+00 -0.25981150097E+03  0.17295924739E+04  0.17099672832E+04 0.  0.
        1    1    3    3  502    0  0.23264824469E+03 -0.59464271375E+03 -0.70500121137E+03  0.95118445679E+03  0.50400001928E-02 0. -1.
       -1    1    3    3    0  502 -0.23264824469E+03  0.59464271375E+03  0.44518971040E+03  0.77840801707E+03  0.50400001928E-02 0.  1.
</event>
<event>
 5   0  0.1333546E-04  0.1698527E+04  0.7818609E-02  0.8762205E-01
       -2   -1    0    0    0  501  0.00000000000E+00  0.00000000000E+00  0.37403391626E+03  0.37403391627E+03  0.25500000920E-02 0.  1.
        2   -1    0    0  501    0  0.00000000000E+00  0.00000000000E+00 -0.19282974155E+04  0.19282974155E+04  0.25500000920E-02 0. -1.
    10030    2    1    2    0    0  0.00000000000E+00  0.00000000000E+00 -0.15542634992E+04  0.23023313318E+04  0.16985271667E+04 0.  0.
        5    1    3    3  502    0 -0.64849173951E+03 -0.19530330308E+03 -0.82596307141E+02  0.68229697080E+03  0.46999998093E+01 0.  1.
       -5    1    3    3    0  502  0.64849173951E+03  0.19530330308E+03 -0.14716671921E+04  0.16200343610E+04  0.46999998093E+01 0. -1.
</event>
<event>
 5   0  0.1333546E-04  0.1700578E+04  0.7818609E-02  0.8761034E-01
       -2   -1    0    0    0  501  0.00000000000E+00  0.00000000000E+00  0.11195212924E+04  0.11195212924E+04  0.25500000920E-02 0. -1.
        2   -1    0    0  501    0  0.00000000000E+00  0.00000000000E+00 -0.64580441953E+03  0.64580441954E+03  0.25500000920E-02 0.  1.
    10030    2    1    2    0    0  0.00000000000E+00  0.00000000000E+00  0.47371687283E+03  0.17653257119E+04  0.17005784879E+04 0.  0.
        5    1    3    3  502    0  0.15391909790E+03 -0.27276041051E+03  0.10574491721E+04  0.11028645301E+04  0.46999998093E+01 0. -1.
       -5    1    3    3    0  502 -0.15391909790E+03  0.27276041051E+03 -0.58373229923E+03  0.66246118181E+03  0.46999998093E+01 0.  1.
</event>
<event>
 5   0  0.6834837E-05  0.1701375E+04  0.7818609E-02  0.8760581E-01
       -1   -1    0    0    0  501  0.00000000000E+00  0.00000000000E+00  0.69852769952E+03  0.69852769954E+03  0.50400001928E-02 0. -1.
        1   -1    0    0  501    0  0.00000000000E+00  0.00000000000E+00 -0.10359920221E+04  0.10359920221E+04  0.50400001928E-02 0.  1.
    10030    2    1    2    0    0  0.00000000000E+00  0.00000000000E+00 -0.33746432254E+03  0.17345197216E+04  0.17013748839E+04 0.  0.
        5    1    3    3  502    0  0.88325392591E+02 -0.16181043721E+02  0.69366930211E+03  0.69947293860E+03  0.46999998093E+01 0. -1.
       -5    1    3    3    0  502 -0.88325392591E+02  0.16181043721E+02 -0.10311336246E+04  0.10350467830E+04  0.46999998093E+01 0.  1.
</event>
<event>
 5   0  0.6834837E-05  0.1698915E+04  0.7818609E-02  0.8761983E-01
        1   -1    0    0  501    0  0.00000000000E+00  0.00000000000E+00  0.11503232490E+04  0.11503232490E+04  0.50400001928E-02 0. -1.
       -1   -1    0    0    0  501  0.00000000000E+00  0.00000000000E+00 -0.62728298457E+03  0.62728298459E+03  0.50400001928E-02 0.  1.
    10030    2    1    2    0    0  0.00000000000E+00  0.00000000000E+00  0.52304026440E+03  0.17776062336E+04  0.16989151843E+04 0.  0.
        5    1    3    3  502    0  0.14349729113E+03  0.77138649666E+03 -0.79019961054E+02  0.78860309664E+03  0.46999998093E+01 0.  1.
       -5    1    3    3    0  502 -0.14349729113E+03 -0.77138649666E+03  0.60206022546E+03  0.98900313693E+03  0.46999998093E+01 0. -1.
</event>
<event>
 5   0  0.1333546E-04  0.1698349E+04  0.7818609E-02  0.8762307E-01
        2   -1    0    0  501    0  0.00000000000E+00  0.00000000000E+00  0.10919130465E+04  0.10919130465E+04  0.25500000920E-02 0. -1.
       -2   -1    0    0    0  501  0.00000000000E+00  0.00000000000E+00 -0.66039816731E+03  0.66039816731E+03  0.25500000920E-02 0.  1.
    10030    2    1    2    0    0  0.00000000000E+00  0.00000000000E+00  0.43151487916E+03  0.17523112138E+04  0.16983490510E+04 0.  0.
        5    1    3    3  502    0  0.32503441611E+03  0.39219785235E+03  0.91676274875E+03  0.10487814618E+04  0.46999998093E+01 0. -1.
       -5    1    3    3    0  502 -0.32503441611E+03 -0.39219785235E+03 -0.48524786959E+03  0.70352975202E+03  0.46999998093E+01 0.  1.
</event>
<event>
 5   0  0.6564887E-05  0.1701757E+04  0.7818609E-02  0.8760363E-01
       -1   -1    0    0    0  501  0.00000000000E+00  0.00000000000E+00  0.38757322592E+03  0.38757322596E+03  0.50400001928E-02 0. -1.
        1   -1    0    0  501    0  0.00000000000E+00  0.00000000000E+00 -0.18680191710E+04  0.18680191710E+04  0.50400001928E-02 0.  1.
    10030    2    1    2    0    0  0.00000000000E+00  0.00000000000E+00 -0.14804459451E+04  0.22555923970E+04  0.17017569935E+04 0.  0.
        4    1    3    3  502    0  0.54651005131E+03 -0.11061480021E+03  0.11166428974E+03  0.56866457311E+03  0.12699999809E+01 0. -1.
       -4    1    3    3    0  502 -0.54651005131E+03  0.11061480021E+03 -0.15921102348E+04  0.16869278239E+04  0.12699999809E+01 0.  1.
</event>
<event>
 5   0  0.1255362E-04  0.1700427E+04  0.7818609E-02  0.8761121E-01
        2   -1    0    0  501    0  0.00000000000E+00  0.00000000000E+00  0.62266139521E+03  0.62266139521E+03  0.25500000920E-02 0. -1.
       -2   -1    0    0    0  501  0.00000000000E+00  0.00000000000E+00 -0.11609250540E+04  0.11609250540E+04  0.25500000920E-02 0.  1.
    10030    2    1    2    0    0  0.00000000000E+00  0.00000000000E+00 -0.53826365879E+03  0.17835864492E+04  0.17004272567E+04 0.  0.
        1    1    3    3  502    0  0.60419821482E+03 -0.13195683849E+03  0.34283484333E+03  0.70710948222E+03  0.50400001928E-02 0. -1.
       -1    1    3    3    0  502 -0.60419821482E+03  0.13195683849E+03 -0.88109850212E+03  0.10764769670E+04  0.50400001928E-02 0.  1.
</event>
<event>
 5   0  0.6834837E-05  0.1701845E+04  0.7818609E-02  0.8760313E-01
       -1   -1    0    0    0  501  0.00000000000E+00  0.00000000000E+00  0.12155143164E+04  0.12155143164E+04  0.50400001928E-02 0.  1.
        1   -1    0    0  501    0  0.00000000000E+00  0.00000000000E+00 -0.59568928657E+03  0.59568928659E+03  0.50400001928E-02 0. -1.
    10030    2    1    2    0    0  0.00000000000E+00  0.00000000000E+00  0.61982502982E+03  0.18112036030E+04  0.17018447120E+04 0.  0.
        5    1    3    3  502    0 -0.49160609421E+03  0.37397858624E+03 -0.31293841663E+03  0.69245149825E+03  0.46999998093E+01 0. -1.
       -5    1    3    3    0  502  0.49160609421E+03 -0.37397858624E+03  0.93276344646E+03  0.11187521047E+04  0.46999998093E+01 0.  1.
</event>
<event>
 5   0  0.6601906E-05  0.1700146E+04  0.7818609E-02  0.8761281E-01
       -1   -1    0    0    0  501  0.00000000000E+00  0.00000000000E+00  0.76044919868E+03  0.76044919869E+03  0.50400001928E-02 0.  1.
        1   -1    0    0  501    0  0.00000000000E+00  0.00000000000E+00 -0.95025998536E+03  0.95025998538E+03  0.50400001928E-02 0. -1.
    10030    2    1    2    0    0  0.00000000000E+00  0.00000000000E+00 -0.18981078669E+03  0.17107091841E+04  0.17001463989E+04 0.  0.
        1    1    3    3  502    0 -0.71438874838E+03  0.33937975968E+03 -0.40844128960E+03  0.89014279314E+03  0.50400001928E-02 0.  1.
       -1    1    3    3    0  502  0.71438874838E+03 -0.33937975968E+03  0.21863050291E+03  0.82056639093E+03  0.50400001928E-02 0. -1.
</event>
<event>
 5   0  0.6601906E-05  0.1697690E+04  0.7818609E-02  0.8762683E-01
        1   -1    0    0  501    0  0.00000000000E+00  0.00000000000E+00  0.81126495521E+03  0.81126495523E+03  0.50400001928E-02 0. -1.
       -1   -1    0    0    0  501  0.00000000000E+00  0.00000000000E+00 -0.88816637491E+03  0.88816637492E+03  0.50400001928E-02 0.  1.
    10030    2    1    2    0    0  0.00000000000E+00  0.00000000000E+00 -0.76901419698E+02  0.16994313301E+04  0.16976904952E+04 0.  0.
        1    1    3    3  502    0 -0.40663733411E+02  0.56648441721E+03 -0.66995425468E+03  0.87829200016E+03  0.50400001928E-02 0. -1.
       -1    1    3    3    0  502  0.40663733411E+02 -0.56648441721E+03  0.59305283498E+03  0.82113932999E+03  0.50400001928E-02 0.  1.
</event>
<event>
 5   0  0.6564887E-05  0.1700474E+04  0.7818609E-02  0.8761094E-01
       -1   -1    0    0    0  501  0.00000000000E+00  0.00000000000E+00  0.52721986282E+03  0.52721986284E+03  0.50400001928E-02 0. -1.
        1   -1    0    0  501    0  0.00000000000E+00  0.00000000000E+00 -0.13711596322E+04  0.13711596322E+04  0.50400001928E-02 0.  1.
    10030    2    1    2    0    0  0.00000000000E+00  0.00000000000E+00 -0.84393976937E+03  0.18983794950E+04  0.17004735731E+04 0.  0.
        4    1    3    3  502    0  0.49371210226E+03  0.39663996605E+03 -0.10552907018E+04  0.12307375759E+04  0.12699999809E+01 0.  1.
       -4    1    3    3    0  502 -0.49371210226E+03 -0.39663996605E+03  0.21135093245E+03  0.66764191910E+03  0.12699999809E+01 0. -1.
</event>
<event>
 5   0  0.1285639E-04  0.1704882E+04  0.7818609E-02  0.8758585E-01
       -2   -1    0    0    0  501  0.00000000000E+00  0.00000000000E+00  0.38966578844E+03  0.38966578845E+03  0.25500000920E-02 0. -1.
        2   -1    0    0  501    0  0.00000000000E+00  0.00000000000E+00 -0.18648174776E+04  0.18648174776E+04  0.25500000920E-02 0.  1.
    10030    2    1    2    0    0  0.00000000000E+00  0.00000000000E+00 -0.14751516892E+04  0.22544832661E+04  0.17048818994E+04 0.  0.
        4    1    3    3  502    0 -0.64094060552E+03 -0.17191237021E+03 -0.14451301495E+04  0.15902080004E+04  0.12699999809E+01 0.  1.
       -4    1    3    3    0  502  0.64094060552E+03  0.17191237021E+03 -0.30021539743E+02  0.66427526567E+03  0.12699999809E+01 0. -1.
</event>
<event>
 5   0  0.1255362E-04  0.1703003E+04  0.7818609E-02  0.8759654E-01
        2   -1    0    0  501    0  0.00000000000E+00  0.00000000000E+00  0.17097399892E+04  0.17097399892E+04  0.25500000920E-02 0.  1.
       -2   -1    0    0    0  501  0.00000000000E+00  0.00000000000E+00 -0.42407290641E+03  0.42407290641E+03  0.25500000920E-02 0. -1.
    10030    2    1    2    0    0  0.00000000000E+00  0.00000000000E+00  0.12856670828E+04  0.21338128956E+04  0.17030025325E+04 0.  0.
        1    1    3    3  502    0 -0.47959147481E+02  0.44871445474E+03  0.15475876835E+04  0.16120398196E+04  0.50400001928E-02 0.  1.
       -1    1    3    3    0  502  0.47959147481E+02 -0.44871445474E+03 -0.26192060075E+03  0.52177307600E+03  0.50400001928E-02 0. -1.
</event>
<event>
 5   0  0.6564887E-05  0.1703925E+04  0.7818609E-02  0.8759129E-01
        1   -1    0    0  501    0  0.00000000000E+00  0.00000000000E+00  0.12285712914E+04  0.12285712914E+04  0.50400001928E-02 0.  1.
       -1   -1    0    0    0  501  0.00000000000E+00  0.00000000000E+00 -0.59080046050E+03  0.59080046052E+03  0.50400001928E-02 0. -1.
    10030    2    1    2    0    0  0.00000000000E+00  0.00000000000E+00  0.63777083092E+03  0.18193717519E+04  0.17039254500E+04 0.  0.
        4    1    3    3  502    0  0.57989632881E+03 -0.51313780904E+03 -0.60503230979E+02  0.77669325804E+03  0.12699999809E+01 0. -1.
       -4    1    3    3    0  502 -0.57989632881E+03  0.51313780904E+03  0.69827406190E+03  0.10426784939E+04  0.12699999809E+01 0.  1.
</event>
<event>
 5   0  0.1333546E-04  0.1688541E+04  0.7818609E-02  0.8767927E-01
        2   -1    0    0  501    0  0.00000000000E+00  0.00000000000E+00  0.19305494613E+04  0.19305494613E+04  0.25500000920E-02 0.  1.
       -2   -1    0    0    0  501  0.00000000000E+00  0.00000000000E+00 -0.36921731386E+03  0.36921731387E+03  0.25500000920E-02 0. -1.
    10030    2    1    2    0    0  0.00000000000E+00  0.00000000000E+00  0.15613321475E+04  0.22997667752E+04  0.16885405372E+04 0.  0.
        5    1    3    3  502    0 -0.69501155859E+02 -0.63876422995E+03  0.15265565292E+04  0.16562750614E+04  0.46999998093E+01 0.  1.
       -5    1    3    3    0  502  0.69501155859E+02  0.63876422995E+03  0.34775618268E+02  0.64349171382E+03  0.46999998093E+01 0. -1.
</event>
<event>
 5   0  0.1393870E-04  0.1697975E+04  0.7818609E-02  0.8762520E-01
        2   -1    0    0  501    0  0.00000000000E+00  0.00000000000E+00  0.13903236258E+04  0.13903236258E+04  0.25500000920E-02 0. -1.
       -2   -1    0    0    0  501  0.00000000000E+00  0.00000000000E+00 -0.51842579079E+03  0.51842579079E+03  0.25500000920E-02 0.  1.
    10030    2    1    2    0    0  0.00000000000E+00  0.00000000000E+00  0.87189783504E+03  0.19087494166E+04  0.16979748233E+04 0.  0.
        3    1    3    3  502    0  0.65348555474E+03 -0.19413580251E+03  0.10047729940E+04  0.12142079145E+04  0.10100000352E+00 0. -1.
       -3    1    3    3    0  502 -0.65348555474E+03  0.19413580251E+03 -0.13287515893E+03  0.69454150210E+03  0.10100000352E+00 0.  1.
</event>
<event>
 5   0  0.1285639E-04  0.1696759E+04  0.7818609E-02  0.8763215E-01
        2   -1    0    0  501    0  0.00000000000E+00  0.00000000000E+00  0.99723065056E+03  0.99723065056E+03  0.25500000920E-02 0. -1.
       -2   -1    0    0    0  501  0.00000000000E+00  0.00000000000E+00 -0.72174612571E+03  0.72174612571E+03  0.25500000920E-02 0.  1.
    10030    2    1    2    0    0  0.00000000000E+00  0.00000000000E+00  0.27548452485E+03  0.17189767763E+04  0.16967585078E+04 0.  0.
        4    1    3    3  502    0  0.76953019736E+03 -0.66672609189E+02 -0.21774246842E+03  0.80251813495E+03  0.12699999809E+01 0.  1.
       -4    1    3    3    0  502 -0.76953019736E+03  0.66672609189E+02  0.49322699327E+03  0.91645864132E+03  0.12699999809E+01 0. -1.
</event>
<event>
 5   0  0.1269175E-04  0.1708394E+04  0.7818609E-02  0.8756592E-01
        2   -1    0    0  501    0  0.00000000000E+00  0.00000000000E+00  0.77815328490E+03  0.77815328490E+03  0.25500000920E-02 0.  1.
       -2   -1    0    0    0  501  0.00000000000E+00  0.00000000000E+00 -0.93767159682E+03  0.93767159682E+03  0.25500000920E-02 0. -1.
    10030    2    1    2    0    0  0.00000000000E+00  0.00000000000E+00 -0.15951831192E+03  0.17158248817E+04  0.17083936704E+04 0.  0.
        2    1    3    3  502    0  0.22282093632E+02 -0.18256159457E+03 -0.91755007326E+03  0.93580092138E+03  0.25500000920E-02 0. -1.
       -2    1    3    3    0  502 -0.22282093632E+02  0.18256159457E+03  0.75803176134E+03  0.78002396035E+03  0.25500000920E-02 0.  1.
</event>
<event>
 5   0  0.1269175E-04  0.1694856E+04  0.7818609E-02  0.8764304E-01
       -2   -1    0    0    0  501  0.00000000000E+00  0.00000000000E+00  0.25113360527E+03  0.25113360528E+03  0.25500000920E-02 0.  1.
        2   -1    0    0  501    0  0.00000000000E+00  0.00000000000E+00 -0.28595689274E+04  0.28595689274E+04  0.25500000920E-02 0. -1.
    10030    2    1    2    0    0  0.00000000000E+00  0.00000000000E+00 -0.26084353221E+04  0.31107025327E+04  0.16948555741E+04 0.  0.
        2    1    3    3  502    0 -0.48298076983E+03  0.50429964189E+02 -0.29560077118E+02  0.48650529645E+03  0.25500000920E-02 0.  1.
       -2    1    3    3    0  502  0.48298076983E+03 -0.50429964189E+02 -0.25788752450E+04  0.26241972362E+04  0.25500000920E-02 0. -1.
</event>
<event>
 5   0  0.1269175E-04  0.1728991E+04  0.7818609E-02  0.8745000E-01
        2   -1    0    0  501    0  0.00000000000E+00  0.00000000000E+00  0.17924188819E+04  0.17924188819E+04  0.25500000920E-02 0.  1.
       -2   -1    0    0    0  501  0.00000000000E+00  0.00000000000E+00 -0.41695191362E+03  0.41695191363E+03  0.25500000920E-02 0. -1.
    10030    2    1    2    0    0  0.00000000000E+00  0.00000000000E+00  0.13754669683E+04  0.22093707955E+04  0.17289910154E+04 0.  0.
        2    1    3    3  502    0  0.75147684592E+03 -0.26915838806E+03  0.11119080162E+04  0.13687597029E+04  0.25500000920E-02 0.  1.
       -2    1    3    3    0  502 -0.75147684592E+03  0.26915838806E+03  0.26355895208E+03  0.84061109262E+03  0.25500000920E-02 0. -1.
</event>
<event>
 5   0  0.1393870E-04  0.1592572E+04  0.7818609E-02  0.8825124E-01
       -2   -1    0    0    0  501  0.00000000000E+00  0.00000000000E+00  0.10897138331E+04  0.10897138331E+04  0.25500000920E-02 0.  1.
        2   -1    0    0  501    0  0.00000000000E+00  0.00000000000E+00 -0.58186953569E+03  0.58186953570E+03  0.25500000920E-02 0. -1.
    10030    2    1    2    0    0  0.00000000000E+00  0.00000000000E+00  0.50784429740E+03  0.16715833688E+04  0.15925718597E+04 0.  0.
        3    1    3    3  502    0 -0.56398440307E+03 -0.23895615085E+03  0.78798086741E+03  0.99804424077E+03  0.10100000352E+00 0.  1.
       -3    1    3    3    0  502  0.56398440307E+03  0.23895615085E+03 -0.28013657000E+03  0.67353912803E+03  0.10100000352E+00 0. -1.
</event>
<event>
 5   0  0.1285639E-04  0.1698331E+04  0.7818609E-02  0.8762317E-01
        2   -1    0    0  501    0  0.00000000000E+00  0.00000000000E+00  0.47341597719E+03  0.47341597720E+03  0.25500000920E-02 0.  1.
       -2   -1    0    0    0  501  0.00000000000E+00  0.00000000000E+00 -0.15231464827E+04  0.15231464827E+04  0.25500000920E-02 0. -1.
    10030    2    1    2    0    0  0.00000000000E+00  0.00000000000E+00 -0.10497305055E+04  0.19965624599E+04  0.16983308047E+04 0.  0.
        4    1    3    3  502    0 -0.57386777787E+03  0.28854107612E+03  0.12809727788E+03  0.65497381977E+03  0.12699999809E+01 0.  1.
       -4    1    3    3    0  502  0.57386777787E+03 -0.28854107612E+03 -0.11778277834E+04  0.13415886401E+04  0.12699999809E+01 0. -1.
</event>
<event>
 5   0  0.1255362E-04  0.1703447E+04  0.7818609E-02  0.8759401E-01
        2   -1    0    0  501    0  0.00000000000E+00  0.00000000000E+00  0.14035958219E+04  0.14035958219E+04  0.25500000920E-02 0.  1.
       -2   -1    0    0    0  501  0.00000000000E+00  0.00000000000E+00 -0.51683862604E+03  0.51683862605E+03  0.25500000920E-02 0. -1.
    10030    2    1    2    0    0  0.00000000000E+00  0.00000000000E+00  0.88675719587E+03  0.19204344480E+04  0.17034465488E+04 0.  0.
        1    1    3    3  502    0  0.60279668202E+03 -0.30658328798E+03 -0.14033450875E+03  0.69068873358E+03  0.50400001928E-02 0. -1.
       -1    1    3    3    0  502 -0.60279668202E+03  0.30658328798E+03  0.10270917046E+04  0.12297457144E+04  0.50400001928E-02 0.  1.
</event>
<event>
 5   0  0.6601906E-05  0.1656927E+04  0.7818609E-02  0.8786319E-01
       -1   -1    0    0    0  501  0.00000000000E+00  0.00000000000E+00  0.18824913815E+04  0.18824913815E+04  0.50400001928E-02 0. -1.
        1   -1    0    0  501    0  0.00000000000E+00  0.00000000000E+00 -0.36459757445E+03  0.36459757448E+03  0.50400001928E-02 0.  1.
    10030    2    1    2    0    0  0.00000000000E+00  0.00000000000E+00  0.15178938071E+04  0.22470889560E+04  0.16569270251E+04 0.  0.
        1    1    3    3  502    0 -0.22041433532E+03  0.34330777216E+03  0.17368156984E+04  0.17840884159E+04  0.50400001928E-02 0. -1.
       -1    1    3    3    0  502  0.22041433532E+03 -0.34330777216E+03 -0.21892189129E+03  0.46300054011E+03  0.50400001928E-02 0.  1.
</event>
<event>
 5   0  0.6615842E-05  0.1707428E+04  0.7818609E-02  0.8757139E-01
       -1   -1    0    0    0  501  0.00000000000E+00  0.00000000000E+00  0.50997303949E+03  0.50997303952E+03  0.50400001928E-02 0. -1.
        1   -1    0    0  501    0  0.00000000000E+00  0.00000000000E+00 -0.14291500873E+04  0.14291500873E+04  0.50400001928E-02 0.  1.
    10030    2    1    2    0    0  0.00000000000E+00  0.00000000000E+00 -0.91917704777E+03  0.19391231268E+04  0.17074284921E+04 0.  0.
        3    1    3    3  502    0  0.61483680037E+03  0.55572117508E+03 -0.69227552390E+03  0.10798591236E+04  0.10100000352E+00 0.  1.
       -3    1    3    3    0  502 -0.61483680037E+03 -0.55572117508E+03 -0.22690152386E+03  0.85926400323E+03  0.10100000352E+00 0. -1.
</event>
<event>
 5   0  0.6601906E-05  0.1692918E+04  0.7818609E-02  0.8765414E-01
       -1   -1    0    0    0  501  0.00000000000E+00  0.00000000000E+00  0.99215705148E+03  0.99215705149E+03  0.50400001928E-02 0. -1.
        1   -1    0    0  501    0  0.00000000000E+00  0.00000000000E+00 -0.72215698904E+03  0.72215698906E+03  0.50400001928E-02 0.  1.
    10030    2    1    2    0    0  0.00000000000E+00  0.00000000000E+00  0.27000006244E+03  0.17143140406E+04  0.16929183666E+04 0.  0.
        1    1    3    3  502    0 -0.12993900370E+03  0.62274481318E+03  0.70044580138E+03  0.94621327814E+03  0.50400001928E-02 0. -1.
       -1    1    3    3    0  502  0.12993900370E+03 -0.62274481318E+03 -0.43044573894E+03  0.76810076242E+03  0.50400001928E-02 0.  1.
</event>
<event>
 5   0  0.1285639E-04  0.1693623E+04  0.7818609E-02  0.8765010E-01
        2   -1    0    0  501    0  0.00000000000E+00  0.00000000000E+00  0.75619184690E+03  0.75619184691E+03  0.25500000920E-02 0.  1.
       -2   -1    0    0    0  501  0.00000000000E+00  0.00000000000E+00 -0.94829050835E+03  0.94829050836E+03  0.25500000920E-02 0. -1.
    10030    2    1    2    0    0  0.00000000000E+00  0.00000000000E+00 -0.19209866145E+03  0.17044823553E+04  0.16936228044E+04 0.  0.
        4    1    3    3  502    0 -0.17444419278E+03 -0.59604877072E+03 -0.67539924327E+03  0.91753510242E+03  0.12699999809E+01 0. -1.
       -4    1    3    3    0  502  0.17444419278E+03  0.59604877072E+03  0.48330058182E+03  0.78694725284E+03  0.12699999809E+01 0.  1.
</event>
<event>
 5   0  0.1269175E-04  0.1692532E+04  0.7818609E-02  0.8765635E-01
       -2   -1    0    0    0  501  0.00000000000E+00  0.00000000000E+00  0.88156767265E+03  0.88156767265E+03  0.25500000920E-02 0. -1.
        2   -1    0    0  501    0  0.00000000000E+00  0.00000000000E+00 -0.81237752706E+03  0.81237752706E+03  0.25500000920E-02 0.  1.
    10030    2    1    2    0    0  0.00000000000E+00  0.00000000000E+00  0.69190145593E+02  0.16939451997E+04  0.16925315546E+04 0.  0.
        2    1    3    3  502    0 -0.28681997794E+03 -0.73036468006E+03 -0.28263575213E+03  0.83401512817E+03  0.25500000920E-02 0.  1.
       -2    1    3    3    0  502  0.28681997794E+03  0.73036468006E+03  0.35182589772E+03  0.85993007154E+03  0.25500000920E-02 0. -1.
</event>
<event>
 5   0  0.1269175E-04  0.1693894E+04  0.7818609E-02  0.8764855E-01
       -2   -1    0    0    0  501  0.00000000000E+00  0.00000000000E+00  0.71135659625E+03  0.71135659626E+03  0.25500000920E-02 0. -1.
        2   -1    0    0  501    0  0.00000000000E+00  0.00000000000E+00 -0.10083814605E+04  0.10083814605E+04  0.25500000920E-02 0.  1.
    10030    2    1    2    0    0  0.00000000000E+00  0.00000000000E+00 -0.29702486423E+03  0.17197380567E+04  0.16938935072E+04 0.  0.
        2    1    3    3  502    0 -0.79310026689E+03 -0.29688573624E+03 -0.16173534658E+03  0.86215282639E+03  0.25500000920E-02 0. -1.
       -2    1    3    3    0  502  0.79310026689E+03  0.29688573624E+03 -0.13528951765E+03  0.85758523035E+03  0.25500000920E-02 0.  1.
</event>
<event>
 5   0  0.1255362E-04  0.1709761E+04  0.7818609E-02  0.8755817E-01
        2   -1    0    0  501    0  0.00000000000E+00  0.00000000000E+00  0.15456204377E+04  0.15456204377E+04  0.25500000920E-02 0.  1.
       -2   -1    0    0    0  501  0.00000000000E+00  0.00000000000E+00 -0.47283318428E+03  0.47283318429E+03  0.25500000920E-02 0. -1.
    10030    2    1    2    0    0  0.00000000000E+00  0.00000000000E+00  0.10727872534E+04  0.20184536220E+04  0.17097609579E+04 0.  0.
        1    1    3    3  502    0 -0.38281992482E+03 -0.65961079829E+03  0.99237094629E+03  0.12515740470E+04  0.50400001928E-02 0.  1.
       -1    1    3    3    0  502  0.38281992482E+03  0.65961079829E+03  0.80416307135E+02  0.76687957499E+03  0.50400001928E-02 0. -1.
</event>
<event>
 5   0  0.1333546E-04  0.1707105E+04  0.7818609E-02  0.8757322E-01
        2   -1    0    0  501    0  0.00000000000E+00  0.00000000000E+00  0.16344648373E+04  0.16344648373E+04  0.25500000920E-02 0.  1.
       -2   -1    0    0    0  501  0.00000000000E+00  0.00000000000E+00 -0.44574358628E+03  0.44574358629E+03  0.25500000920E-02 0. -1.
    10030    2    1    2    0    0  0.00000000000E+00  0.00000000000E+00  0.11887212510E+04  0.20802084236E+04  0.17071054077E+04 0.  0.
        5    1    3    3  502    0  0.57515503116E+03 -0.35106660064E+03  0.12327727431E+04  0.14049205651E+04  0.46999998093E+01 0.  1.
       -5    1    3    3    0  502 -0.57515503116E+03  0.35106660064E+03 -0.44051492087E+02  0.67528785855E+03  0.46999998093E+01 0. -1.
</event>
<event>
 5   0  0.6539134E-05  0.1712222E+04  0.7818609E-02  0.8754424E-01
       -1   -1    0    0    0  501  0.00000000000E+00  0.00000000000E+00  0.86471308798E+03  0.86471308800E+03  0.50400001928E-02 0.  1.
        1   -1    0    0  501    0  0.00000000000E+00  0.00000000000E+00 -0.84759424108E+03  0.84759424110E+03  0.50400001928E-02 0. -1.
    10030    2    1    2    0    0  0.00000000000E+00  0.00000000000E+00  0.17118846900E+02  0.17123073291E+04  0.17122217539E+04 0.  0.
        2    1    3    3  502    0 -0.39414168114E+03 -0.23272859977E+03 -0.71495138405E+03  0.84892034228E+03  0.25500000920E-02 0. -1.
       -2    1    3    3    0  502  0.39414168114E+03  0.23272859977E+03  0.73207023095E+03  0.86338698682E+03  0.25500000920E-02 0.  1.
</event>
<event>
 5   0  0.6615842E-05  0.1697623E+04  0.7818609E-02  0.8762721E-01
       -1   -1    0    0    0  501  0.00000000000E+00  0.00000000000E+00  0.40483989687E+03  0.40483989690E+03  0.50400001928E-02 0.  1.
        1   -1    0    0  501    0  0.00000000000E+00  0.00000000000E+00 -0.17796694534E+04  0.17796694534E+04  0.50400001928E-02 0. -1.
    10030    2    1    2    0    0  0.00000000000E+00  0.00000000000E+00 -0.13748295565E+04  0.21845093503E+04  0.16976232774E+04 0.  0.
        3    1    3    3  502    0  0.63461327131E+03  0.56139360335E+03 -0.62199742922E+03  0.10510840091E+04  0.10100000352E+00 0.  1.
       -3    1    3    3    0  502 -0.63461327131E+03 -0.56139360335E+03 -0.75283212731E+03  0.11334253412E+04  0.10100000352E+00 0. -1.
</event>
<event>
 5   0  0.6601906E-05  0.1697749E+04  0.7818609E-02  0.8762649E-01
       -1   -1    0    0    0  501  0.00000000000E+00  0.00000000000E+00  0.76098329780E+03  0.76098329781E+03  0.50400001928E-02 0.  1.
        1   -1    0    0  501    0  0.00000000000E+00  0.00000000000E+00 -0.94691648763E+03  0.94691648764E+03  0.50400001928E-02 0. -1.
    10030    2    1    2    0    0  0.00000000000E+00  0.00000000000E+00 -0.18593318983E+03  0.17078997855E+04  0.16977486640E+04 0.  0.
        1    1    3    3  502    0  0.57272958686E+03  0.11205146102E+03  0.52717115462E+03  0.78643762363E+03  0.50400001928E-02 0.  1.
       -1    1    3    3    0  502 -0.57272958686E+03 -0.11205146102E+03 -0.71310434445E+03  0.92146216183E+03  0.50400001928E-02 0. -1.
</event>
<event>
 5   0  0.6539134E-05  0.1696005E+04  0.7818609E-02  0.8763646E-01
       -1   -1    0    0    0  501  0.00000000000E+00  0.00000000000E+00  0.30234602734E+03  0.30234602738E+03  0.50400001928E-02 0. -1.
        1   -1    0    0  501    0  0.00000000000E+00  0.00000000000E+00 -0.23784283530E+04  0.23784283530E+04  0.50400001928E-02 0.  1.
    10030    2    1    2    0    0  0.00000000000E+00  0.00000000000E+00 -0.20760823256E+04  0.26807743804E+04  0.16960051461E+04 0.  0.
        2    1    3    3  502    0  0.59139041828E+02 -0.11164138913E+03 -0.23634693594E+04  0.23668436026E+04  0.25500000920E-02 0.  1.
       -2    1    3    3    0  502 -0.59139041828E+02  0.11164138913E+03  0.28738703380E+03  0.31393077778E+03  0.25500000920E-02 0. -1.
</event>
<event>
 5   0  0.1393870E-04  0.1698587E+04  0.7818609E-02  0.8762170E-01
        2   -1    0    0  501    0  0.00000000000E+00  0.00000000000E+00  0.16196675450E+04  0.16196675450E+04  0.25500000920E-02 0.  1.
       -2   -1    0    0    0  501  0.00000000000E+00  0.00000000000E+00 -0.44533815852E+03  0.44533815853E+03  0.25500000920E-02 0. -1.
    10030    2    1    2    0    0  0.00000000000E+00  0.00000000000E+00  0.11743293865E+04  0.20650057036E+04  0.16985873683E+04 0.  0.
        3    1    3    3  502    0  0.20093696931E+03  0.82347788074E+03  0.52273998097E+03  0.99586574578E+03  0.10100000352E+00 0.  1.
       -3    1    3    3    0  502 -0.20093696931E+03 -0.82347788074E+03  0.65158940556E+03  0.10691399578E+04  0.10100000352E+00 0. -1.
</event>
<event>
 5   0  0.6539134E-05  0.1697181E+04  0.7818609E-02  0.8762974E-01
       -1   -1    0    0    0  501  0.00000000000E+00  0.00000000000E+00  0.92699016946E+03  0.92699016947E+03  0.50400001928E-02 0.  1.
        1   -1    0    0  501    0  0.00000000000E+00  0.00000000000E+00 -0.77682179870E+03  0.77682179872E+03  0.50400001928E-02 0. -1.
    10030    2    1    2    0    0  0.00000000000E+00  0.00000000000E+00  0.15016837076E+03  0.17038119682E+04  0.16971813938E+04 0.  0.
        2    1    3    3  502    0 -0.49863160051E+03  0.80258693235E+02  0.75968035851E+03  0.91224403422E+03  0.25500000920E-02 0.  1.
       -2    1    3    3    0  502  0.49863160051E+03 -0.80258693235E+02 -0.60951198775E+03  0.79156793397E+03  0.25500000920E-02 0. -1.
</event>
<event>
 5   0  0.1333546E-04  0.1713863E+04  0.7818609E-02  0.8753497E-01
        2   -1    0    0  501    0  0.00000000000E+00  0.00000000000E+00  0.74042840503E+03  0.74042840503E+03  0.25500000920E-02 0. -1.
       -2   -1    0    0    0  501  0.00000000000E+00  0.00000000000E+00 -0.99176557557E+03  0.99176557558E+03  0.25500000920E-02 0.  1.
    10030    2    1    2    0    0  0.00000000000E+00  0.00000000000E+00 -0.25133717055E+03  0.17321939806E+04  0.17138627755E+04 0.  0.
        5    1    3    3  502    0  0.40641004965E+03  0.65413083848E+03 -0.50552491421E+03  0.92121322786E+03  0.46999998093E+01 0.  1.
       -5    1    3    3    0  502 -0.40641004965E+03 -0.65413083848E+03  0.25418774366E+03  0.81098075275E+03  0.46999998093E+01 0. -1.
</event>
<event>
 5   0  0.1255362E-04  0.1702716E+04  0.7818609E-02  0.8759817E-01
        2   -1    0    0  501    0  0.00000000000E+00  0.00000000000E+00  0.10899496577E+04  0.10899496577E+04  0.25500000920E-02 0. -1.
       -2   -1    0    0    0  501  0.00000000000E+00  0.00000000000E+00 -0.66499463144E+03  0.66499463144E+03  0.25500000920E-02 0.  1.
    10030    2    1    2    0    0  0.00000000000E+00  0.00000000000E+00  0.42495502623E+03  0.17549442891E+04  0.17027162663E+04 0.  0.
        1    1    3    3  502    0  0.61077820666E+03 -0.30696948285E+02  0.82294452466E+03  0.10252950849E+04  0.50400001928E-02 0. -1.
       -1    1    3    3    0  502 -0.61077820666E+03  0.30696948285E+02 -0.39798949843E+03  0.72964920424E+03  0.50400001928E-02 0.  1.
</event>
<event>
 5   0  0.6834837E-05  0.1700655E+04  0.7818609E-02  0.8760991E-01
        1   -1    0    0  501    0  0.00000000000E+00  0.00000000000E+00  0.59146139374E+03  0.59146139376E+03  0.50400001928E-02 0. -1.
       -1   -1    0    0    0  501  0.00000000000E+00  0.00000000000E+00 -0.12224918653E+04  0.12224918654E+04  0.50400001928E-02 0.  1.
    10030    2    1    2    0    0  0.00000000000E+00  0.00000000000E+00 -0.63103047161E+03  0.18139532591E+04  0.17006548651E+04 0.  0.
        5    1    3    3  502    0 -0.72666458091E+03  0.74583846063E+02  0.14871652200E+03  0.74548162764E+03  0.46999998093E+01 0. -1.
       -5    1    3    3    0  502  0.72666458091E+03 -0.74583846063E+02 -0.77974699361E+03  0.10684716315E+04  0.46999998093E+01 0.  1.
</event>
<event>
 5   0  0.6615842E-05  0.1707283E+04  0.7818609E-02  0.8757222E-01
        1   -1    0    0  501    0  0.00000000000E+00  0.00000000000E+00  0.94485220944E+03  0.94485220946E+03  0.50400001928E-02 0. -1.
       -1   -1    0    0    0  501  0.00000000000E+00  0.00000000000E+00 -0.77123533440E+03  0.77123533441E+03  0.50400001928E-02 0.  1.
    10030    2    1    2    0    0  0.00000000000E+00  0.00000000000E+00  0.17361687505E+03  0.17160875439E+04  0.17072825305E+04 0.  0.
        3    1    3    3  502    0  0.65049172550E+03 -0.53658015785E+03 -0.46713571383E+02  0.84453532709E+03  0.10100000352E+00 0.  1.
       -3    1    3    3    0  502 -0.65049172550E+03  0.53658015785E+03  0.22033044643E+03  0.87155221678E+03  0.10100000352E+00 0. -1.
</event>
<event>
 5   0  0.6601906E-05  0.1701872E+04  0.7818609E-02  0.8760298E-01
       -1   -1    0    0    0  501  0.00000000000E+00  0.00000000000E+00  0.42085792765E+03  0.42085792768E+03  0.50400001928E-02 0.  1.
        1   -1    0    0  501    0  0.00000000000E+00  0.00000000000E+00 -0.17205135508E+04  0.17205135508E+04  0.50400001928E-02 0. -1.
    10030    2    1    2    0    0  0.00000000000E+00  0.00000000000E+00 -0.12996556231E+04  0.21413714784E+04  0.17018716374E+04 0.  0.
        1    1    3    3  502    0  0.42984131037E+03  0.73675410062E+02 -0.15692081979E+04  0.16286822853E+04  0.50400001928E-02 0. -1.
       -1    1    3    3    0  502 -0.42984131037E+03 -0.73675410062E+02  0.26955257479E+03  0.51268919313E+03  0.50400001928E-02 0.  1.
</event>
<event>
 5   0  0.6834837E-05  0.1697124E+04  0.7818609E-02  0.8763006E-01
       -1   -1    0    0    0  501  0.00000000000E+00  0.00000000000E+00  0.10735409907E+04  0.10735409907E+04  0.50400001928E-02 0. -1.
        1   -1    0    0  501    0  0.00000000000E+00  0.00000000000E+00 -0.67073102604E+03  0.67073102606E+03  0.50400001928E-02 0.  1.
    10030    2    1    2    0    0  0.00000000000E+00  0.00000000000E+00  0.40280996465E+03  0.17442720168E+04  0.16971237435E+04 0.  0.
        5    1    3    3  502    0  0.61303076171E+03  0.11400601455E+03  0.79292063368E+03  0.10087364906E+04  0.46999998093E+01 0.  1.
       -5    1    3    3    0  502 -0.61303076171E+03 -0.11400601455E+03 -0.39011066904E+03  0.73553552616E+03  0.46999998093E+01 0. -1.
</event>
<event>
 5   0  0.1269175E-04  0.1687474E+04  0.7818609E-02  0.8768541E-01
        2   -1    0    0  501    0  0.00000000000E+00  0.00000000000E+00  0.61438274795E+03  0.61438274796E+03  0.25500000920E-02 0.  1.
       -2   -1    0    0    0  501  0.00000000000E+00  0.00000000000E+00 -0.11587111252E+04  0.11587111252E+04  0.25500000920E-02 0. -1.
    10030    2    1    2    0    0  0.00000000000E+00  0.00000000000E+00 -0.54432837728E+03  0.17730938732E+04  0.16874740000E+04 0.  0.
        2    1    3    3  502    0  0.79507313479E+03 -0.15348981274E+03 -0.52123955315E+03  0.96301146621E+03  0.25500000920E-02 0. -1.
       -2    1    3    3    0  502 -0.79507313479E+03  0.15348981274E+03 -0.23088824133E+02  0.81008240698E+03  0.25500000920E-02 0.  1.
</event>
<event>
 5   0  0.6539134E-05  0.1693343E+04  0.7818609E-02  0.8765170E-01
       -1   -1    0    0    0  501  0.00000000000E+00  0.00000000000E+00  0.47619622494E+03  0.47619622497E+03  0.50400001928E-02 0.  1.
        1   -1    0    0  501    0  0.00000000000E+00  0.00000000000E+00 -0.15053721482E+04  0.15053721482E+04  0.50400001928E-02 0. -1.
    10030    2    1    2    0    0  0.00000000000E+00  0.00000000000E+00 -0.10291759232E+04  0.19815683731E+04  0.16933428880E+04 0.  0.
        2    1    3    3  502    0  0.24542859712E+01  0.11669188076E+03  0.46673666832E+03  0.48110927669E+03  0.25500000920E-02 0.  1.
       -2    1    3    3    0  502 -0.24542859712E+01 -0.11669188076E+03 -0.14959125915E+04  0.15004590964E+04  0.25500000920E-02 0. -1.
</event>
<event>
 5   0  0.1333546E-04  0.1727925E+04  0.7818609E-02  0.8745596E-01
       -2   -1    0    0    0  501  0.00000000000E+00  0.00000000000E+00  0.77197028427E+03  0.77197028427E+03  0.25500000920E-02 0. -1.
        2   -1    0    0  501    0  0.00000000000E+00  0.00000000000E+00 -0.96691692060E+03  0.96691692060E+03  0.25500000920E-02 0.  1.
    10030    2    1    2    0    0  0.00000000000E+00  0.00000000000E+00 -0.19494663633E+03  0.17388872049E+04  0.17279249174E+04 0.  0.
        5    1    3    3  502    0  0.60577206260E+03  0.37325208797E+03  0.39566832552E+03  0.81415749509E+03  0.46999998093E+01 0. -1.
       -5    1    3    3    0  502 -0.60577206260E+03 -0.37325208797E+03 -0.59061496184E+03  0.92472970978E+03  0.46999998093E+01 0.  1.
</event>
<event>
 5   0  0.6601906E-05  0.1703224E+04  0.7818609E-02  0.8759528E-01
       -1   -1    0    0    0  501  0.00000000000E+00  0.00000000000E+00  0.10250131820E+04  0.10250131820E+04  0.50400001928E-02 0.  1.
        1   -1    0    0  501    0  0.00000000000E+00  0.00000000000E+00 -0.70754464435E+03  0.70754464437E+03  0.50400001928E-02 0. -1.
    10030    2    1    2    0    0  0.00000000000E+00  0.00000000000E+00  0.31746853763E+03  0.17325578264E+04  0.17032235171E+04 0.  0.
        1    1    3    3  502    0 -0.40892647674E+03 -0.67114892590E+03  0.49237845810E+03  0.92741484253E+03  0.50400001928E-02 0.  1.
       -1    1    3    3    0  502  0.40892647674E+03  0.67114892590E+03 -0.17490992047E+03  0.80514298384E+03  0.50400001928E-02 0. -1.
</event>
<event>
 5   0  0.1393870E-04  0.1705876E+04  0.7818609E-02  0.8758020E-01
        2   -1    0    0  501    0  0.00000000000E+00  0.00000000000E+00  0.17880976519E+04  0.17880976519E+04  0.25500000920E-02 0.  1.
       -2   -1    0    0    0  501  0.00000000000E+00  0.00000000000E+00 -0.40685891034E+03  0.40685891035E+03  0.25500000920E-02 0. -1.
    10030    2    1    2    0    0  0.00000000000E+00  0.00000000000E+00  0.13812387416E+04  0.21949565623E+04  0.17058762702E+04 0.  0.
        3    1    3    3  502    0 -0.14114958075E+03  0.83299402527E+03  0.54000800969E+03  0.10027018056E+04  0.10100000352E+00 0.  1.
       -3    1    3    3    0  502  0.14114958075E+03 -0.83299402527E+03  0.84123073191E+03  0.11922547567E+04  0.10100000352E+00 0. -1.
</event>
<event>
 5   0  0.1333546E-04  0.1711052E+04  0.7818609E-02  0.8755086E-01
        2   -1    0    0  501    0  0.00000000000E+00  0.00000000000E+00  0.86948146924E+03  0.86948146925E+03  0.25500000920E-02 0.  1.
       -2   -1    0    0    0  501  0.00000000000E+00  0.00000000000E+00 -0.84179456381E+03  0.84179456381E+03  0.25500000920E-02 0. -1.
    10030    2    1    2    0    0  0.00000000000E+00  0.00000000000E+00  0.27686905439E+02  0.17112760331E+04  0.17110520438E+04 0.  0.
        5    1    3    3  502    0  0.50345522577E+03  0.65063948248E+03  0.24861613330E+03  0.85943642712E+03  0.46999998093E+01 0.  1.
       -5    1    3    3    0  502 -0.50345522577E+03 -0.65063948248E+03 -0.22092922786E+03  0.85183960594E+03  0.46999998093E+01 0. -1.
</event>
<event>
 5   0  0.1333546E-04  0.1705676E+04  0.7818609E-02  0.8758134E-01
        2   -1    0    0  501    0  0.00000000000E+00  0.00000000000E+00  0.51376391389E+03  0.51376391390E+03  0.25500000920E-02 0. -1.
       -2   -1    0    0    0  501  0.00000000000E+00  0.00000000000E+00 -0.14156945505E+04  0.14156945505E+04  0.25500000920E-02 0.  1.
    10030    2    1    2    0    0  0.00000000000E+00  0.00000000000E+00 -0.90193063664E+03  0.19294584644E+04  0.17056761394E+04 0.  0.
        5    1    3    3  502    0  0.59081279827E+03  0.54476151633E+03 -0.12805653696E+03  0.81378463915E+03  0.46999998093E+01 0. -1.
       -5    1    3    3    0  502 -0.59081279827E+03 -0.54476151633E+03 -0.77387409968E+03  0.11156738253E+04  0.46999998093E+01 0.  1.
</event>
<event>
 5   0  0.1393870E-04  0.1698053E+04  0.7818609E-02  0.8762476E-01
        2   -1    0    0  501    0  0.00000000000E+00  0.00000000000E+00  0.13207323301E+04  0.13207323301E+04  0.25500000920E-02 0. -1.
       -2   -1    0    0    0  501  0.00000000000E+00  0.00000000000E+00 -0.54579258933E+03  0.54579258933E+03  0.25500000920E-02 0.  1.
    10030    2    1    2    0    0  0.00000000000E+00  0.00000000000E+00  0.77493974081E+03  0.18665249195E+04  0.16980529065E+04 0.  0.
        3    1    3    3  502    0 -0.58779066349E+03 -0.24540038547E+03 -0.22958697157E+03  0.67707414733E+03  0.10100000352E+00 0.  1.
       -3    1    3    3    0  502  0.58779066349E+03  0.24540038547E+03  0.10045267124E+04  0.11894507721E+04  0.10100000352E+00 0. -1.
</event>
<event>
 5   0  0.6601906E-05  0.1755949E+04  0.7818609E-02  0.8730083E-01
       -1   -1    0    0    0  501  0.00000000000E+00  0.00000000000E+00  0.43624962712E+03  0.43624962715E+03  0.50400001928E-02 0.  1.
        1   -1    0    0  501    0  0.00000000000E+00  0.00000000000E+00 -0.17669679561E+04  0.17669679561E+04  0.50400001928E-02 0. -1.
    10030    2    1    2    0    0  0.00000000000E+00  0.00000000000E+00 -0.13307183290E+04  0.22032175833E+04  0.17559488740E+04 0.  0.
        1    1    3    3  502    0  0.45902517618E+03 -0.62155656311E+02 -0.16011719941E+04  0.16668290833E+04  0.50400001928E-02 0. -1.
       -1    1    3    3    0  502 -0.45902517618E+03  0.62155656311E+02  0.27045366511E+03  0.53638850004E+03  0.50400001928E-02 0.  1.
</event>
<event>
 5   0  0.6564887E-05  0.1697504E+04  0.7818609E-02  0.8762789E-01
        1   -1    0    0  501    0  0.00000000000E+00  0.00000000000E+00  0.17096750868E+04  0.17096750868E+04  0.50400001928E-02 0. -1.
       -1   -1    0    0    0  501  0.00000000000E+00  0.00000000000E+00 -0.42135466553E+03  0.42135466556E+03  0.50400001928E-02 0.  1.
    10030    2    1    2    0    0  0.00000000000E+00  0.00000000000E+00  0.12883204212E+04  0.21310297523E+04  0.16975035486E+04 0.  0.
        4    1    3    3  502    0 -0.55111300504E+03  0.47983917771E+03  0.11861731760E+04  0.13931904383E+04  0.12699999809E+01 0. -1.
       -4    1    3    3    0  502  0.55111300504E+03 -0.47983917771E+03  0.10214724518E+03  0.73783931407E+03  0.12699999809E+01 0.  1.
</event>
<event>
 5   0  0.6834837E-05  0.1698073E+04  0.7818609E-02  0.8762464E-01
        1   -1    0    0  501    0  0.00000000000E+00  0.00000000000E+00  0.19713275491E+04  0.19713275491E+04  0.50400001928E-02 0. -1.
       -1   -1    0    0    0  501  0.00000000000E+00  0.00000000000E+00 -0.36567386065E+03  0.36567386068E+03  0.50400001928E-02 0.  1.
    10030    2    1    2    0    0  0.00000000000E+00  0.00000000000E+00  0.16056536884E+04  0.23370014098E+04  0.16980729731E+04 0.  0.
        5    1    3    3  502    0  0.68085170366E+03  0.30200243412E+03  0.13636895001E+04  0.15538454413E+04  0.46999998093E+01 0. -1.
       -5    1    3    3    0  502 -0.68085170366E+03 -0.30200243412E+03  0.24196418832E+03  0.78315596851E+03  0.46999998093E+01 0.  1.
</event>
<event>
 5   0  0.1269175E-04  0.1684759E+04  0.7818609E-02  0.8770105E-01
        2   -1    0    0  501    0  0.00000000000E+00  0.00000000000E+00  0.12154002920E+04  0.12154002920E+04  0.25500000920E-02 0.  1.
       -2   -1    0    0    0  501  0.00000000000E+00  0.00000000000E+00 -0.58384290357E+03  0.58384290358E+03  0.25500000920E-02 0. -1.
    10030    2    1    2    0    0  0.00000000000E+00  0.00000000000E+00  0.63155738844E+03  0.17992431956E+04  0.16847585412E+04 0.  0.
        2    1    3    3  502    0 -0.61458583285E+03 -0.34996418766E+03  0.80449085646E+03  0.10711658213E+04  0.25500000920E-02 0.  1.
       -2    1    3    3    0  502  0.61458583285E+03  0.34996418766E+03 -0.17293346802E+03  0.72807737429E+03  0.25500000920E-02 0. -1.
</event>
<event>
 5   0  0.6615842E-05  0.1695428E+04  0.7818609E-02  0.8763976E-01
        1   -1    0    0  501    0  0.00000000000E+00  0.00000000000E+00  0.14424731677E+04  0.14424731677E+04  0.50400001928E-02 0.  1.
       -1   -1    0    0    0  501  0.00000000000E+00  0.00000000000E+00 -0.49818520523E+03  0.49818520526E+03  0.50400001928E-02 0. -1.
    10030    2    1    2    0    0  0.00000000000E+00  0.00000000000E+00  0.94428796243E+03  0.19406583729E+04  0.16954277231E+04 0.  0.
        3    1    3    3  502    0  0.27959908565E+03 -0.62186796101E+02  0.13854049945E+04  0.14147048650E+04  0.10100000352E+00 0.  1.
       -3    1    3    3    0  502 -0.27959908565E+03  0.62186796101E+02 -0.44111703203E+03  0.52595350788E+03  0.10100000352E+00 0. -1.
</event>
<event>
 5   0  0.6564887E-05  0.1711071E+04  0.7818609E-02  0.8755075E-01
       -1   -1    0    0    0  501  0.00000000000E+00  0.00000000000E+00  0.14852497173E+04  0.14852497173E+04  0.50400001928E-02 0. -1.
        1   -1    0    0  501    0  0.00000000000E+00  0.00000000000E+00 -0.49280658190E+03  0.49280658193E+03  0.50400001928E-02 0.  1.
    10030    2    1    2    0    0  0.00000000000E+00  0.00000000000E+00  0.99244313540E+03  0.19780562992E+04  0.17110708185E+04 0.  0.
        4    1    3    3  502    0  0.84421192308E+03  0.60217960847E+02  0.35174389155E+03  0.91653988022E+03  0.12699999809E+01 0. -1.
       -4    1    3    3    0  502 -0.84421192308E+03 -0.60217960847E+02  0.64069924385E+03  0.10615164190E+04  0.12699999809E+01 0.  1.
</event>
<event>
 5   0  0.1285639E-04  0.1696968E+04  0.7818609E-02  0.8763096E-01
        2   -1    0    0  501    0  0.00000000000E+00  0.00000000000E+00  0.77267765514E+03  0.77267765515E+03  0.25500000920E-02 0.  1.
       -2   -1    0    0    0  501  0.00000000000E+00  0.00000000000E+00 -0.93172743120E+03  0.93172743120E+03  0.25500000920E-02 0. -1.
    10030    2    1    2    0    0  0.00000000000E+00  0.00000000000E+00 -0.15904977605E+03  0.17044050863E+04  0.16969678450E+04 0.  0.
        4    1    3    3  502    0 -0.53152501391E+03 -0.59172181825E+03  0.21718444470E+03  0.82451455204E+03  0.12699999809E+01 0.  1.
       -4    1    3    3    0  502  0.53152501391E+03  0.59172181825E+03 -0.37623422076E+03  0.87989053431E+03  0.12699999809E+01 0. -1.
</event>
<event>
 5   0  0.6564887E-05  0.1693143E+04  0.7818609E-02  0.8765285E-01
        1   -1    0    0  501    0  0.00000000000E+00  0.00000000000E+00  0.52929326852E+03  0.52929326854E+03  0.50400001928E-02 0. -1.
       -1   -1    0    0    0  501  0.00000000000E+00  0.00000000000E+00 -0.13540378924E+04  0.13540378924E+04  0.50400001928E-02 0.  1.
    10030    2    1    2    0    0  0.00000000000E+00  0.00000000000E+00 -0.82474462386E+03  0.18833311609E+04  0.16931428077E+04 0.  0.
        4    1    3    3  502    0  0.78780991302E+01 -0.71211922585E+03 -0.92150501661E+03  0.11646239585E+04  0.12699999809E+01 0.  1.
       -4    1    3    3    0  502 -0.78780991302E+01  0.71211922585E+03  0.96760392748E+02  0.71870720239E+03  0.12699999809E+01 0. -1.
</event>
<event>
 5   0  0.6564887E-05  0.1699676E+04  0.7818609E-02  0.8761549E-01
        1   -1    0    0  501    0  0.00000000000E+00  0.00000000000E+00  0.99752025076E+03  0.99752025078E+03  0.50400001928E-02 0.  1.
       -1   -1    0    0    0  501  0.00000000000E+00  0.00000000000E+00 -0.72401963100E+03  0.72401963102E+03  0.50400001928E-02 0. -1.
    10030    2    1    2    0    0  0.00000000000E+00  0.00000000000E+00  0.27350061976E+03  0.17215398818E+04  0.16996755501E+04 0.  0.
        4    1    3    3  502    0 -0.77247818002E+03  0.24179064832E+03 -0.12549610541E+03  0.81910691707E+03  0.12699999809E+01 0. -1.
       -4    1    3    3    0  502  0.77247818002E+03 -0.24179064832E+03  0.39899672517E+03  0.90243296472E+03  0.12699999809E+01 0.  1.
</event>
<event>
 5   0  0.6601906E-05  0.1701676E+04  0.7818609E-02  0.8760409E-01
       -1   -1    0    0    0  501  0.00000000000E+00  0.00000000000E+00  0.89358357928E+03  0.89358357929E+03  0.50400001928E-02 0.  1.
        1   -1    0    0  501    0  0.00000000000E+00  0.00000000000E+00 -0.81013685401E+03  0.81013685402E+03  0.50400001928E-02 0. -1.
    10030    2    1    2    0    0  0.00000000000E+00  0.00000000000E+00  0.83446725270E+02  0.17037204333E+04  0.17016756327E+04 0.  0.
        1    1    3    3  502    0  0.54625115794E+03  0.53227625617E+03  0.41929274820E+03  0.87035323239E+03  0.50400001928E-02 0.  1.
       -1    1    3    3    0  502 -0.54625115794E+03 -0.53227625617E+03 -0.33584602293E+03  0.83336720092E+03  0.50400001928E-02 0. -1.
</event>
<event>
 5   0  0.1255362E-04  0.1700047E+04  0.7818609E-02  0.8761338E-01
       -2   -1    0    0    0  501  0.00000000000E+00  0.00000000000E+00  0.70270972431E+03  0.70270972431E+03  0.25500000920E-02 0. -1.
        2   -1    0    0  501    0  0.00000000000E+00  0.00000000000E+00 -0.10282193802E+04  0.10282193802E+04  0.25500000920E-02 0.  1.
    10030    2    1    2    0    0  0.00000000000E+00  0.00000000000E+00 -0.32550965593E+03  0.17309291046E+04  0.17000467726E+04 0.  0.
        1    1    3    3  502    0  0.55040806404E+03  0.40623671812E+03  0.35095228671E+03  0.76885942518E+03  0.50400001928E-02 0. -1.
       -1    1    3    3    0  502 -0.55040806404E+03 -0.40623671812E+03 -0.67646194264E+03  0.96206967938E+03  0.50400001928E-02 0.  1.
</event>
<event>
 5   0  0.6615842E-05  0.1700436E+04  0.7818609E-02  0.8761116E-01
        1   -1    0    0  501    0  0.00000000000E+00  0.00000000000E+00  0.14930547805E+04  0.14930547805E+04  0.50400001928E-02 0. -1.
       -1   -1    0    0    0  501  0.00000000000E+00  0.00000000000E+00 -0.48415562362E+03  0.48415562365E+03  0.50400001928E-02 0.  1.
    10030    2    1    2    0    0  0.00000000000E+00  0.00000000000E+00  0.10088991569E+04  0.19772104041E+04  0.17004362598E+04 0.  0.
        3    1    3    3  502    0  0.58001735260E+03  0.10305850312E+03  0.12172830160E+04  0.13523383954E+04  0.10100000352E+00 0. -1.
       -3    1    3    3    0  502 -0.58001735260E+03 -0.10305850312E+03 -0.20838385914E+03  0.62487200876E+03  0.10100000352E+00 0.  1.
</event>
<event>
 5   0  0.1269175E-04  0.1697527E+04  0.7818609E-02  0.8762776E-01
        2   -1    0    0  501    0  0.00000000000E+00  0.00000000000E+00  0.15253976664E+04  0.15253976664E+04  0.25500000920E-02 0.  1.
       -2   -1    0    0    0  501  0.00000000000E+00  0.00000000000E+00 -0.47227005227E+03  0.47227005227E+03  0.25500000920E-02 0. -1.
    10030    2    1    2    0    0  0.00000000000E+00  0.00000000000E+00  0.10531276141E+04  0.19976677186E+04  0.16975271846E+04 0.  0.
        2    1    3    3  502    0 -0.70220858557E+03  0.42400429817E+02  0.10854000256E+04  0.12934403387E+04  0.25500000920E-02 0. -1.
       -2    1    3    3    0  502  0.70220858557E+03 -0.42400429817E+02 -0.32272411548E+02  0.70422737994E+03  0.25500000920E-02 0.  1.
</event>
<event>
 5   0  0.1393870E-04  0.1601641E+04  0.7818609E-02  0.8819540E-01
       -2   -1    0    0    0  501  0.00000000000E+00  0.00000000000E+00  0.94599858202E+03  0.94599858202E+03  0.25500000920E-02 0.  1.
        2   -1    0    0  501    0  0.00000000000E+00  0.00000000000E+00 -0.67792245271E+03  0.67792245272E+03  0.25500000920E-02 0. -1.
    10030    2    1    2    0    0  0.00000000000E+00  0.00000000000E+00  0.26807612931E+03  0.16239210347E+04  0.16016412570E+04 0.  0.
        3    1    3    3  502    0 -0.30896721540E+03  0.22510294785E+03  0.84751823212E+03  0.92974149165E+03  0.10100000352E+00 0.  1.
       -3    1    3    3    0  502  0.30896721540E+03 -0.22510294785E+03 -0.57944210281E+03  0.69417954309E+03  0.10100000352E+00 0. -1.
</event>
<event>
 5   0  0.6834837E-05  0.1700883E+04  0.7818609E-02  0.8760861E-01
        1   -1    0    0  501    0  0.00000000000E+00  0.00000000000E+00  0.13107332867E+04  0.13107332867E+04  0.50400001928E-02 0.  1.
       -1   -1    0    0    0  501  0.00000000000E+00  0.00000000000E+00 -0.55179090557E+03  0.55179090559E+03  0.50400001928E-02 0. -1.
    10030    2    1    2    0    0  0.00000000000E+00  0.00000000000E+00  0.75894238111E+03  0.18625241923E+04  0.17008829557E+04 0.  0.
        5    1    3    3  502    0  0.57253734754E+03 -0.12947402082E+03  0.10533094963E+04  0.12058380992E+04  0.46999998093E+01 0. -1.
       -5    1    3    3    0  502 -0.57253734754E+03  0.12947402082E+03 -0.29436711519E+03  0.65668609312E+03  0.46999998093E+01 0.  1.
</event>
<event>
 5   0  0.1285639E-04  0.1697645E+04  0.7818609E-02  0.8762709E-01
       -2   -1    0    0    0  501  0.00000000000E+00  0.00000000000E+00  0.31262470718E+03  0.31262470719E+03  0.25500000920E-02 0.  1.
        2   -1    0    0  501    0  0.00000000000E+00  0.00000000000E+00 -0.23046788690E+04  0.23046788690E+04  0.25500000920E-02 0. -1.
    10030    2    1    2    0    0  0.00000000000E+00  0.00000000000E+00 -0.19920541618E+04  0.26173035762E+04  0.16976449058E+04 0.  0.
        4    1    3    3  502    0 -0.42567470603E+03 -0.48539914607E+03 -0.14641613373E+03  0.66200497240E+03  0.12699999809E+01 0.  1.
       -4    1    3    3    0  502  0.42567470603E+03  0.48539914607E+03 -0.18456380281E+04  0.19552986038E+04  0.12699999809E+01 0. -1.
</event>
<event>
 5   0  0.1285639E-04  0.1704217E+04  0.7818609E-02  0.8758963E-01
       -2   -1    0    0    0  501  0.00000000000E+00  0.00000000000E+00  0.34132989325E+03  0.34132989326E+03  0.25500000920E-02 0. -1.
        2   -1    0    0  501    0  0.00000000000E+00  0.00000000000E+00 -0.21272360136E+04  0.21272360136E+04  0.25500000920E-02 0.  1.
    10030    2    1    2    0    0  0.00000000000E+00  0.00000000000E+00 -0.17859061204E+04  0.24685659069E+04  0.17042174057E+04 0.  0.
        4    1    3    3  502    0 -0.44730223053E+02  0.61229304373E+03 -0.17489001860E+04  0.18535255697E+04  0.12699999809E+01 0.  1.
       -4    1    3    3    0  502  0.44730223053E+02 -0.61229304373E+03 -0.37005934400E+02  0.61504033716E+03  0.12699999809E+01 0. -1.
</event>
<event>
 5   0  0.1269175E-04  0.1698794E+04  0.7818609E-02  0.8762052E-01
       -2   -1    0    0    0  501  0.00000000000E+00  0.00000000000E+00  0.77309427716E+03  0.77309427717E+03  0.25500000920E-02 0. -1.
        2   -1    0    0  501    0  0.00000000000E+00  0.00000000000E+00 -0.93323064507E+03  0.93323064508E+03  0.25500000920E-02 0.  1.
    10030    2    1    2    0    0  0.00000000000E+00  0.00000000000E+00 -0.16013636791E+03  0.17063249222E+04  0.16987940087E+04 0.  0.
        2    1    3    3  502    0  0.14750618330E+03 -0.61941220251E+03  0.48460344812E+03  0.80016876511E+03  0.25500000920E-02 0. -1.
       -2    1    3    3    0  502 -0.14750618330E+03  0.61941220251E+03 -0.64473981603E+03  0.90615615713E+03  0.25500000920E-02 0.  1.
</event>
<event>
 5   0  0.6834837E-05  0.1697906E+04  0.7818609E-02  0.8762559E-01
        1   -1    0    0  501    0  0.00000000000E+00  0.00000000000E+00  0.10976957207E+04  0.10976957207E+04  0.50400001928E-02 0.  1.
       -1   -1    0    0    0  501  0.00000000000E+00  0.00000000000E+00 -0.65657658931E+03  0.65657658933E+03  0.50400001928E-02 0. -1.
    10030    2    1    2    0    0  0.00000000000E+00  0.00000000000E+00  0.44111913143E+03  0.17542723101E+04  0.16979061369E+04 0.  0.
        5    1    3    3  502    0  0.35740109996E+03  0.57236630394E+03  0.75279215181E+03  0.10109682715E+04  0.46999998093E+01 0.  1.
       -5    1    3    3    0  502 -0.35740109996E+03 -0.57236630394E+03 -0.31167302038E+03  0.74330403858E+03  0.46999998093E+01 0. -1.
</event>
<event>
 5   0  0.1393870E-04  0.1704116E+04  0.7818609E-02  0.8759020E-01
        2   -1    0    0  501    0  0.00000000000E+00  0.00000000000E+00  0.69818634056E+03  0.69818634056E+03  0.25500000920E-02 0. -1.
       -2   -1    0    0    0  501  0.00000000000E+00  0.00000000000E+00 -0.10398407758E+04  0.10398407758E+04  0.25500000920E-02 0.  1.
    10030    2    1    2    0    0  0.00000000000E+00  0.00000000000E+00 -0.34165443528E+03  0.17380271164E+04  0.17041157543E+04 0.  0.
        3    1    3    3  502    0  0.84818646889E+03 -0.49400977111E+02 -0.23646529650E+03  0.88191642983E+03  0.10100000352E+00 0.  1.
       -3    1    3    3    0  502 -0.84818646889E+03  0.49400977111E+02 -0.10518913879E+03  0.85611068658E+03  0.10100000352E+00 0. -1.
</event>
<event>
 5   0  0.4720875E-05  0.1699316E+04  0.7818609E-02  0.8761755E-01
        3   -1    0    0  501    0  0.00000000000E+00  0.00000000000E+00  0.10979111821E+04  0.10979111867E+04  0.10100000352E+00 0.  1.
       -3   -1    0    0    0  501  0.00000000000E+00  0.00000000000E+00 -0.65753797884E+03  0.65753798659E+03  0.10100000352E+00 0. -1.
    10030    2    1    2    0    0  0.00000000000E+00  0.00000000000E+00  0.44037320324E+03  0.17554491733E+04  0.16993155216E+04 0.  0.
        1    1    3    3  502    0  0.74558066206E+03  0.34901661863E+03  0.29665227403E+01  0.82323260626E+03  0.50400001928E-02 0.  1.
       -1    1    3    3    0  502 -0.74558066206E+03 -0.34901661863E+03  0.43740668050E+03  0.93221656706E+03  0.50400001928E-02 0. -1.
</event>
<event>
 5   0  0.6615842E-05  0.1701146E+04  0.7818609E-02  0.8760711E-01
        1   -1    0    0  501    0  0.00000000000E+00  0.00000000000E+00  0.83390564814E+03  0.83390564816E+03  0.50400001928E-02 0. -1.
       -1   -1    0    0    0  501  0.00000000000E+00  0.00000000000E+00 -0.86757390413E+03  0.86757390415E+03  0.50400001928E-02 0.  1.
    10030    2    1    2    0    0  0.00000000000E+00  0.00000000000E+00 -0.33668255989E+02  0.17014795523E+04  0.17011464121E+04 0.  0.
        3    1    3    3  502    0 -0.82284279295E+03  0.10691765038E+03  0.17021351807E+03  0.84703854564E+03  0.10100000352E+00 0. -1.
       -3    1    3    3    0  502  0.82284279295E+03 -0.10691765038E+03 -0.20388177406E+03  0.85444100666E+03  0.10100000352E+00 0.  1.
</event>
<event>
 5   0  0.4720875E-05  0.1702318E+04  0.7818609E-02  0.8760043E-01
        3   -1    0    0  501    0  0.00000000000E+00  0.00000000000E+00  0.89190036993E+03  0.89190037565E+03  0.10100000352E+00 0.  1.
       -3   -1    0    0    0  501  0.00000000000E+00  0.00000000000E+00 -0.81227859395E+03  0.81227860023E+03  0.10100000352E+00 0. -1.
    10030    2    1    2    0    0  0.00000000000E+00  0.00000000000E+00  0.79621775980E+02  0.17041789759E+04  0.17023179358E+04 0.  0.
        3    1    3    3  502    0  0.35914996141E+03  0.57339984089E+03  0.55680116706E+03  0.87624404257E+03  0.10100000352E+00 0.  1.
       -3    1    3    3    0  502 -0.35914996141E+03 -0.57339984089E+03 -0.47717939108E+03  0.82793493330E+03  0.10100000352E+00 0. -1.
</event>
<event>
 5   0  0.1285639E-04  0.1692421E+04  0.7818609E-02  0.8765699E-01
        2   -1    0    0  501    0  0.00000000000E+00  0.00000000000E+00  0.65305490327E+03  0.65305490328E+03  0.25500000920E-02 0.  1.
       -2   -1    0    0    0  501  0.00000000000E+00  0.00000000000E+00 -0.10964957214E+04  0.10964957214E+04  0.25500000920E-02 0. -1.
    10030    2    1    2    0    0  0.00000000000E+00  0.00000000000E+00 -0.44344081811E+03  0.17495506247E+04  0.16924206419E+04 0.  0.
        4    1    3    3  502    0  0.20625167339E+03 -0.19119794002E+03 -0.10467680277E+04  0.10838917482E+04  0.12699999809E+01 0. -1.
       -4    1    3    3    0  502 -0.20625167339E+03  0.19119794002E+03  0.60332720962E+03  0.66565887646E+03  0.12699999809E+01 0.  1.
</event>
<event>
 5   0  0.6564887E-05  0.1697694E+04  0.7818609E-02  0.8762681E-01
        1   -1    0    0  501    0  0.00000000000E+00  0.00000000000E+00  0.52957107812E+03  0.52957107814E+03  0.50400001928E-02 0. -1.
       -1   -1    0    0    0  501  0.00000000000E+00  0.00000000000E+00 -0.13606127120E+04  0.13606127121E+04  0.50400001928E-02 0.  1.
    10030    2    1    2    0    0  0.00000000000E+00  0.00000000000E+00 -0.83104163392E+03  0.18901837902E+04  0.16976938957E+04 0.  0.
        4    1    3    3  502    0  0.80464737032E+02 -0.57271150128E+02  0.52315097066E+03  0.53239375423E+03  0.12699999809E+01 0. -1.
       -4    1    3    3    0  502 -0.80464737032E+02  0.57271150128E+02 -0.13541926046E+04  0.13577900360E+04  0.12699999809E+01 0.  1.
</event>
<event>
 5   0  0.6615842E-05  0.1705870E+04  0.7818609E-02  0.8758024E-01
       -1   -1    0    0    0  501  0.00000000000E+00  0.00000000000E+00  0.92179503594E+03  0.92179503595E+03  0.50400001928E-02 0. -1.
        1   -1    0    0  501    0  0.00000000000E+00  0.00000000000E+00 -0.78921867665E+03  0.78921867667E+03  0.50400001928E-02 0.  1.
    10030    2    1    2    0    0  0.00000000000E+00  0.00000000000E+00  0.13257635929E+03  0.17110137126E+04  0.17058697001E+04 0.  0.
        3    1    3    3  502    0 -0.73659844071E+03 -0.24846564307E+03  0.41832433617E+03  0.88278406141E+03  0.10100000352E+00 0. -1.
       -3    1    3    3    0  502  0.73659844071E+03  0.24846564307E+03 -0.28574797688E+03  0.82822965121E+03  0.10100000352E+00 0.  1.
</event>
<event>
 5   0  0.1269175E-04  0.1698899E+04  0.7818609E-02  0.8761992E-01
       -2   -1    0    0    0  501  0.00000000000E+00  0.00000000000E+00  0.56321895154E+03  0.56321895155E+03  0.25500000920E-02 0.  1.
        2   -1    0    0  501    0  0.00000000000E+00  0.00000000000E+00 -0.12811443727E+04  0.12811443727E+04  0.25500000920E-02 0. -1.
    10030    2    1    2    0    0  0.00000000000E+00  0.00000000000E+00 -0.71792542120E+03  0.18443633243E+04  0.16988993971E+04 0.  0.
        2    1    3    3  502    0  0.82025224849E+03 -0.20385771349E+03 -0.26688892158E+03  0.88634159045E+03  0.25500000920E-02 0.  1.
       -2    1    3    3    0  502 -0.82025224849E+03  0.20385771349E+03 -0.45103649962E+03  0.95802173383E+03  0.25500000920E-02 0. -1.
</event>
<event>
 5   0  0.6615842E-05  0.1698496E+04  0.7818609E-02  0.8762223E-01
        1   -1    0    0  501    0  0.00000000000E+00  0.00000000000E+00  0.11031934725E+04  0.11031934725E+04  0.50400001928E-02 0.  1.
       -1   -1    0    0    0  501  0.00000000000E+00  0.00000000000E+00 -0.65375834390E+03  0.65375834392E+03  0.50400001928E-02 0. -1.
    10030    2    1    2    0    0  0.00000000000E+00  0.00000000000E+00  0.44943512858E+03  0.17569518164E+04  0.16984957316E+04 0.  0.
        3    1    3    3  502    0  0.67840485300E+02  0.51096398839E+03  0.92287996575E+03  0.10570685741E+04  0.10100000352E+00 0.  1.
       -3    1    3    3    0  502 -0.67840485300E+02 -0.51096398839E+03 -0.47344483717E+03  0.69988324235E+03  0.10100000352E+00 0. -1.
</event>
<event>
 5   0  0.1285639E-04  0.1700806E+04  0.7818609E-02  0.8760905E-01
       -2   -1    0    0    0  501  0.00000000000E+00  0.00000000000E+00  0.48599609525E+03  0.48599609525E+03  0.25500000920E-02 0.  1.
        2   -1    0    0  501    0  0.00000000000E+00  0.00000000000E+00 -0.14880471253E+04  0.14880471253E+04  0.25500000920E-02 0. -1.
    10030    2    1    2    0    0  0.00000000000E+00  0.00000000000E+00 -0.10020510301E+04  0.19740432206E+04  0.17008058002E+04 0.  0.
        4    1    3    3  502    0 -0.54900389925E+03  0.19902078430E+03 -0.12185382514E+04  0.13512407769E+04  0.12699999809E+01 0. -1.
       -4    1    3    3    0  502  0.54900389925E+03 -0.19902078430E+03  0.21648722136E+03  0.62280244371E+03  0.12699999809E+01 0.  1.
</event>
<event>
 5   0  0.1255362E-04  0.1697654E+04  0.7818609E-02  0.8762703E-01
       -2   -1    0    0    0  501  0.00000000000E+00  0.00000000000E+00  0.35142068288E+03  0.35142068289E+03  0.25500000920E-02 0.  1.
        2   -1    0    0  501    0  0.00000000000E+00  0.00000000000E+00 -0.20502704297E+04  0.20502704297E+04  0.25500000920E-02 0. -1.
    10030    2    1    2    0    0  0.00000000000E+00  0.00000000000E+00 -0.16988497468E+04  0.24016911126E+04  0.16976541868E+04 0.  0.
        1    1    3    3  502    0 -0.64093604013E+03  0.17118094550E+03 -0.10028796494E+03  0.67093934121E+03  0.50400001928E-02 0.  1.
       -1    1    3    3    0  502  0.64093604013E+03 -0.17118094550E+03 -0.15985617819E+04  0.17307517714E+04  0.50400001928E-02 0. -1.
</event>
<event>
 5   0  0.1255362E-04  0.1703661E+04  0.7818609E-02  0.8759279E-01
       -2   -1    0    0    0  501  0.00000000000E+00  0.00000000000E+00  0.69717298626E+03  0.69717298627E+03  0.25500000920E-02 0.  1.
        2   -1    0    0  501    0  0.00000000000E+00  0.00000000000E+00 -0.10407960406E+04  0.10407960406E+04  0.25500000920E-02 0. -1.
    10030    2    1    2    0    0  0.00000000000E+00  0.00000000000E+00 -0.34362305437E+03  0.17379690269E+04  0.17036606279E+04 0.  0.
        1    1    3    3  502    0  0.46023617556E+03 -0.65499173607E+03 -0.46885108420E+03  0.92771377633E+03  0.50400001928E-02 0. -1.
       -1    1    3    3    0  502 -0.46023617556E+03  0.65499173607E+03  0.12522802983E+03  0.81025525058E+03  0.50400001928E-02 0.  1.
</event>
<event>
 5   0  0.1393870E-04  0.1693788E+04  0.7818609E-02  0.8764915E-01
        2   -1    0    0  501    0  0.00000000000E+00  0.00000000000E+00  0.12058219470E+04  0.12058219470E+04  0.25500000920E-02 0. -1.
       -2   -1    0    0    0  501  0.00000000000E+00  0.00000000000E+00 -0.59480529991E+03  0.59480529991E+03  0.25500000920E-02 0.  1.
    10030    2    1    2    0    0  0.00000000000E+00  0.00000000000E+00  0.61101664710E+03  0.18006272469E+04  0.16937878082E+04 0.  0.
        3    1    3    3  502    0  0.84633761844E+03  0.15818848432E+02  0.27754971013E+03  0.89082627495E+03  0.10100000352E+00 0. -1.
       -3    1    3    3    0  502 -0.84633761844E+03 -0.15818848432E+02  0.33346693696E+03  0.90980097197E+03  0.10100000352E+00 0.  1.
</event>
<event>
 5   0  0.1333546E-04  0.1700608E+04  0.7818609E-02  0.8761018E-01
        2   -1    0    0  501    0  0.00000000000E+00  0.00000000000E+00  0.11176439981E+04  0.11176439981E+04  0.25500000920E-02 0. -1.
       -2   -1    0    0    0  501  0.00000000000E+00  0.00000000000E+00 -0.64691175605E+03  0.64691175606E+03  0.25500000920E-02 0.  1.
    10030    2    1    2    0    0  0.00000000000E+00  0.00000000000E+00  0.47073224204E+03  0.17645557542E+04  0.17006081753E+04 0.  0.
        5    1    3    3  502    0 -0.14807924165E+03 -0.45830332366E+03 -0.49171550445E+03  0.68831360992E+03  0.46999998093E+01 0.  1.
       -5    1    3    3    0  502  0.14807924165E+03  0.45830332366E+03  0.96244774649E+03  0.10762421442E+04  0.46999998093E+01 0. -1.
</event>
<event>
 5   0  0.6615842E-05  0.1708057E+04  0.7818609E-02  0.8756783E-01
        1   -1    0    0  501    0  0.00000000000E+00  0.00000000000E+00  0.21820244172E+04  0.21820244172E+04  0.50400001928E-02 0.  1.
       -1   -1    0    0    0  501  0.00000000000E+00  0.00000000000E+00 -0.33426037089E+03  0.33426037093E+03  0.50400001928E-02 0. -1.
    10030    2    1    2    0    0  0.00000000000E+00  0.00000000000E+00  0.18477640463E+04  0.25162847881E+04  0.17080565460E+04 0.  0.
        3    1    3    3  502    0  0.25153603853E+03  0.32427791965E+03 -0.17947198126E+03  0.44792493803E+03  0.10100000352E+00 0. -1.
       -3    1    3    3    0  502 -0.25153603853E+03 -0.32427791965E+03  0.20272360276E+04  0.20683598501E+04  0.10100000352E+00 0.  1.
</event>
<event>
 5   0  0.6564887E-05  0.1707507E+04  0.7818609E-02  0.8757094E-01
        1   -1    0    0  501    0  0.00000000000E+00  0.00000000000E+00  0.10126082273E+04  0.10126082273E+04  0.50400001928E-02 0. -1.
       -1   -1    0    0    0  501  0.00000000000E+00  0.00000000000E+00 -0.71981928874E+03  0.71981928876E+03  0.50400001928E-02 0.  1.
    10030    2    1    2    0    0  0.00000000000E+00  0.00000000000E+00  0.29278893859E+03  0.17324275161E+04  0.17075068773E+04 0.  0.
        4    1    3    3  502    0  0.19025392626E+03 -0.79827467244E+03 -0.92529803104E+02  0.82583435778E+03  0.12699999809E+01 0.  1.
       -4    1    3    3    0  502 -0.19025392626E+03  0.79827467244E+03  0.38531874169E+03  0.90659315832E+03  0.12699999809E+01 0. -1.
</event>
<event>
 5   0  0.1285639E-04  0.1700723E+04  0.7818609E-02  0.8760952E-01
       -2   -1    0    0    0  501  0.00000000000E+00  0.00000000000E+00  0.54726152316E+03  0.54726152316E+03  0.25500000920E-02 0. -1.
        2   -1    0    0  501    0  0.00000000000E+00  0.00000000000E+00 -0.13213327909E+04  0.13213327909E+04  0.25500000920E-02 0.  1.
    10030    2    1    2    0    0  0.00000000000E+00  0.00000000000E+00 -0.77407126778E+03  0.18685943141E+04  0.17007229001E+04 0.  0.
        4    1    3    3  502    0 -0.38832904564E+03 -0.28573928878E+03 -0.11566527345E+04  0.12531135423E+04  0.12699999809E+01 0.  1.
       -4    1    3    3    0  502  0.38832904564E+03  0.28573928878E+03  0.38258146672E+03  0.61548077177E+03  0.12699999809E+01 0. -1.
</event>
<event>
 5   0  0.6615842E-05  0.1699308E+04  0.7818609E-02  0.8761759E-01
        1   -1    0    0  501    0  0.00000000000E+00  0.00000000000E+00  0.20595165522E+04  0.20595165522E+04  0.50400001928E-02 0.  1.
       -1   -1    0    0    0  501  0.00000000000E+00  0.00000000000E+00 -0.35052493075E+03  0.35052493078E+03  0.50400001928E-02 0. -1.
    10030    2    1    2    0    0  0.00000000000E+00  0.00000000000E+00  0.17089916215E+04  0.24100414830E+04  0.16993079731E+04 0.  0.
        3    1    3    3  502    0  0.18262187098E+03  0.59908178453E+03  0.16688005625E+04  0.17824547848E+04  0.10100000352E+00 0.  1.
       -3    1    3    3    0  502 -0.18262187098E+03 -0.59908178453E+03  0.40191058958E+02  0.62758669818E+03  0.10100000352E+00 0. -1.
</event>
<event>
 5   0  0.6539134E-05  0.1718837E+04  0.7818609E-02  0.8750693E-01
        1   -1    0    0  501    0  0.00000000000E+00  0.00000000000E+00  0.42619370516E+03  0.42619370519E+03  0.50400001928E-02 0. -1.
       -1   -1    0    0    0  501  0.00000000000E+00  0.00000000000E+00 -0.17330160602E+04  0.17330160603E+04  0.50400001928E-02 0.  1.
    10030    2    1    2    0    0  0.00000000000E+00  0.00000000000E+00 -0.13068223551E+04  0.21592097654E+04  0.17188374395E+04 0.  0.
        2    1    3    3  502    0 -0.76196754785E+03 -0.12706076250E+03 -0.11265541437E+04  0.13659660391E+04  0.25500000920E-02 0.  1.
       -2    1    3    3    0  502  0.76196754785E+03  0.12706076250E+03 -0.18026821142E+03  0.79324372636E+03  0.25500000920E-02 0. -1.
</event>
<event>
 5   0  0.6615842E-05  0.1698587E+04  0.7818609E-02  0.8762170E-01
       -1   -1    0    0    0  501  0.00000000000E+00  0.00000000000E+00  0.42070500983E+03  0.42070500986E+03  0.50400001928E-02 0. -1.
        1   -1    0    0  501    0  0.00000000000E+00  0.00000000000E+00 -0.17145025372E+04  0.17145025372E+04  0.50400001928E-02 0.  1.
    10030    2    1    2    0    0  0.00000000000E+00  0.00000000000E+00 -0.12937975274E+04  0.21352075471E+04  0.16985874211E+04 0.  0.
        3    1    3    3  502    0  0.75024113417E+03 -0.39803617511E+03 -0.64402110279E+03  0.10658600974E+04  0.10100000352E+00 0. -1.
       -3    1    3    3    0  502 -0.75024113417E+03  0.39803617511E+03 -0.64977642457E+03  0.10693474497E+04  0.10100000352E+00 0.  1.
</event>
<event>
 5   0  0.6615842E-05  0.1691764E+04  0.7818609E-02  0.8766076E-01
        1   -1    0    0  501    0  0.00000000000E+00  0.00000000000E+00  0.12366194758E+04  0.12366194758E+04  0.50400001928E-02 0.  1.
       -1   -1    0    0    0  501  0.00000000000E+00  0.00000000000E+00 -0.57860680247E+03  0.57860680249E+03  0.50400001928E-02 0. -1.
    10030    2    1    2    0    0  0.00000000000E+00  0.00000000000E+00  0.65801267336E+03  0.18152262783E+04  0.16917640980E+04 0.  0.
        3    1    3    3  502    0  0.79898287671E+03  0.26574164561E+03  0.41567331152E+03  0.93902959037E+03  0.10100000352E+00 0. -1.
       -3    1    3    3    0  502 -0.79898287671E+03 -0.26574164561E+03  0.24233936184E+03  0.87619668796E+03  0.10100000352E+00 0.  1.
</event>
<event>
 5   0  0.6834837E-05  0.1697515E+04  0.7818609E-02  0.8762783E-01
        1   -1    0    0  501    0  0.00000000000E+00  0.00000000000E+00  0.11941853820E+04  0.11941853821E+04  0.50400001928E-02 0.  1.
       -1   -1    0    0    0  501  0.00000000000E+00  0.00000000000E+00 -0.60324739895E+03  0.60324739897E+03  0.50400001928E-02 0. -1.
    10030    2    1    2    0    0  0.00000000000E+00  0.00000000000E+00  0.59093798310E+03  0.17974327810E+04  0.16975149196E+04 0.  0.
        5    1    3    3  502    0  0.12854168520E+03  0.39943144625E+03 -0.48572285652E+03  0.64188568174E+03  0.46999998093E+01 0. -1.
       -5    1    3    3    0  502 -0.12854168520E+03 -0.39943144625E+03  0.10766608396E+04  0.11555470993E+04  0.46999998093E+01 0.  1.
</event>
<event>
 5   0  0.6539134E-05  0.1699607E+04  0.7818609E-02  0.8761589E-01
       -1   -1    0    0    0  501  0.00000000000E+00  0.00000000000E+00  0.58745253221E+03  0.58745253223E+03  0.50400001928E-02 0.  1.
        1   -1    0    0  501    0  0.00000000000E+00  0.00000000000E+00 -0.12293175467E+04  0.12293175467E+04  0.50400001928E-02 0. -1.
    10030    2    1    2    0    0  0.00000000000E+00  0.00000000000E+00 -0.64186501445E+03  0.18167700789E+04  0.16996066671E+04 0.  0.
        2    1    3    3  502    0 -0.57072282939E+03  0.11666434510E+03 -0.98231829460E+03  0.11420526911E+04  0.25500000920E-02 0. -1.
       -2    1    3    3    0  502  0.57072282939E+03 -0.11666434510E+03  0.34045328015E+03  0.67471738778E+03  0.25500000920E-02 0.  1.
</event>
<event>
 5   0  0.6539134E-05  0.1713219E+04  0.7818609E-02  0.8753861E-01
        1   -1    0    0  501    0  0.00000000000E+00  0.00000000000E+00  0.72108661094E+03  0.72108661096E+03  0.50400001928E-02 0. -1.
       -1   -1    0    0    0  501  0.00000000000E+00  0.00000000000E+00 -0.10176032482E+04  0.10176032482E+04  0.50400001928E-02 0.  1.
    10030    2    1    2    0    0  0.00000000000E+00  0.00000000000E+00 -0.29651663728E+03  0.17386898592E+04  0.17132192826E+04 0.  0.
        2    1    3    3  502    0 -0.50168386747E+03  0.67616125673E+03 -0.30839948755E+03  0.89665544771E+03  0.25500000920E-02 0.  1.
       -2    1    3    3    0  502  0.50168386747E+03 -0.67616125673E+03  0.11882850278E+02  0.84203441148E+03  0.25500000920E-02 0. -1.
</event>
<event>
 5   0  0.1333546E-04  0.1699099E+04  0.7818609E-02  0.8761878E-01
        2   -1    0    0  501    0  0.00000000000E+00  0.00000000000E+00  0.16890151898E+04  0.16890151898E+04  0.25500000920E-02 0. -1.
       -2   -1    0    0    0  501  0.00000000000E+00  0.00000000000E+00 -0.42731086241E+03  0.42731086241E+03  0.25500000920E-02 0.  1.
    10030    2    1    2    0    0  0.00000000000E+00  0.00000000000E+00  0.12617043274E+04  0.21163260522E+04  0.16990992171E+04 0.  0.
        5    1    3    3  502    0 -0.27736516574E+03  0.52112986586E+03  0.13917693199E+04  0.15118041216E+04  0.46999998093E+01 0. -1.
       -5    1    3    3    0  502  0.27736516574E+03 -0.52112986586E+03 -0.13006499255E+03  0.60452193057E+03  0.46999998093E+01 0.  1.
</event>
<event>
 5   0  0.6615842E-05  0.1696177E+04  0.7818609E-02  0.8763548E-01
       -1   -1    0    0    0  501  0.00000000000E+00  0.00000000000E+00  0.11638237233E+04  0.11638237233E+04  0.50400001928E-02 0. -1.
        1   -1    0    0  501    0  0.00000000000E+00  0.00000000000E+00 -0.61800930831E+03  0.61800930833E+03  0.50400001928E-02 0.  1.
    10030    2    1    2    0    0  0.00000000000E+00  0.00000000000E+00  0.54581441502E+03  0.17818330317E+04  0.16961767529E+04 0.  0.
        3    1    3    3  502    0  0.37026265140E+02  0.52896321925E+03  0.96820849689E+03  0.11039025026E+04  0.10100000352E+00 0. -1.
       -3    1    3    3    0  502 -0.37026265140E+02 -0.52896321925E+03 -0.42239408187E+03  0.67793052906E+03  0.10100000352E+00 0.  1.
</event>
<event>
 5   0  0.1333546E-04  0.1676289E+04  0.7818609E-02  0.8775004E-01
       -2   -1    0    0    0  501  0.00000000000E+00  0.00000000000E+00  0.41734452871E+03  0.41734452872E+03  0.25500000920E-02 0. -1.
        2   -1    0    0  501    0  0.00000000000E+00  0.00000000000E+00 -0.16832285030E+04  0.16832285030E+04  0.25500000920E-02 0.  1.
    10030    2    1    2    0    0  0.00000000000E+00  0.00000000000E+00 -0.12658839743E+04  0.21005730317E+04  0.16762890041E+04 0.  0.
        5    1    3    3  502    0 -0.22017227662E+02  0.56240110957E+03 -0.14111664845E+04  0.15192737421E+04  0.46999998093E+01 0.  1.
       -5    1    3    3    0  502  0.22017227662E+02 -0.56240110957E+03  0.14528251023E+03  0.58129928964E+03  0.46999998093E+01 0. -1.
</event>
<event>
 5   0  0.6615842E-05  0.1699955E+04  0.7818609E-02  0.8761390E-01
        1   -1    0    0  501    0  0.00000000000E+00  0.00000000000E+00  0.96218381534E+03  0.96218381535E+03  0.50400001928E-02 0. -1.
       -1   -1    0    0    0  501  0.00000000000E+00  0.00000000000E+00 -0.75085628528E+03  0.75085628530E+03  0.50400001928E-02 0.  1.
    10030    2    1    2    0    0  0.00000000000E+00  0.00000000000E+00  0.21132753006E+03  0.17130401007E+04  0.16999550175E+04 0.  0.
        3    1    3    3  502    0 -0.29492833119E+03 -0.73866222218E+03 -0.19640542754E+03  0.81925557745E+03  0.10100000352E+00 0.  1.
       -3    1    3    3    0  502  0.29492833119E+03  0.73866222218E+03  0.40773295760E+03  0.89378452321E+03  0.10100000352E+00 0. -1.
</event>
<event>
 5   0  0.1285639E-04  0.1706020E+04  0.7818609E-02  0.8757938E-01
        2   -1    0    0  501    0  0.00000000000E+00  0.00000000000E+00  0.86529806712E+03  0.86529806712E+03  0.25500000920E-02 0.  1.
       -2   -1    0    0    0  501  0.00000000000E+00  0.00000000000E+00 -0.84089686035E+03  0.84089686035E+03  0.25500000920E-02 0. -1.
    10030    2    1    2    0    0  0.00000000000E+00  0.00000000000E+00  0.24401206773E+02  0.17061949275E+04  0.17060204312E+04 0.  0.
        4    1    3    3  502    0  0.17726298482E+03  0.43077618698E+03 -0.70245944824E+03  0.84287672787E+03  0.12699999809E+01 0. -1.
       -4    1    3    3    0  502 -0.17726298482E+03 -0.43077618698E+03  0.72686065501E+03  0.86331819960E+03  0.12699999809E+01 0.  1.
</event>
<event>
 5   0  0.6564887E-05  0.1690311E+04  0.7818609E-02  0.8766910E-01
        1   -1    0    0  501    0  0.00000000000E+00  0.00000000000E+00  0.97189359179E+03  0.97189359181E+03  0.50400001928E-02 0.  1.
       -1   -1    0    0    0  501  0.00000000000E+00  0.00000000000E+00 -0.73494430615E+03  0.73494430617E+03  0.50400001928E-02 0. -1.
    10030    2    1    2    0    0  0.00000000000E+00  0.00000000000E+00  0.23694928564E+03  0.17068378980E+04  0.16903108134E+04 0.  0.
        4    1    3    3  502    0  0.64233026342E+03  0.29745327394E+03 -0.34779710063E+03  0.78868945320E+03  0.12699999809E+01 0. -1.
       -4    1    3    3    0  502 -0.64233026342E+03 -0.29745327394E+03  0.58474638627E+03  0.91814844477E+03  0.12699999809E+01 0.  1.
</event>
<event>
 5   0  0.1285639E-04  0.1703510E+04  0.7818609E-02  0.8759365E-01
        2   -1    0    0  501    0  0.00000000000E+00  0.00000000000E+00  0.10693366896E+04  0.10693366896E+04  0.25500000920E-02 0. -1.
       -2   -1    0    0    0  501  0.00000000000E+00  0.00000000000E+00 -0.67844531173E+03  0.67844531174E+03  0.25500000920E-02 0.  1.
    10030    2    1    2    0    0  0.00000000000E+00  0.00000000000E+00  0.39089137787E+03  0.17477820013E+04  0.17035098635E+04 0.  0.
        4    1    3    3  502    0  0.17651939054E+03  0.28104949206E+03 -0.60937494713E+03  0.69389289614E+03  0.12699999809E+01 0.  1.
       -4    1    3    3    0  502 -0.17651939054E+03 -0.28104949206E+03  0.10002663250E+04  0.10538891052E+04  0.12699999809E+01 0. -1.
</event>
<event>
 5   0  0.1269175E-04  0.1672266E+04  0.7818609E-02  0.8777342E-01
        2   -1    0    0  501    0  0.00000000000E+00  0.00000000000E+00  0.11547810009E+04  0.11547810009E+04  0.25500000920E-02 0.  1.
       -2   -1    0    0    0  501  0.00000000000E+00  0.00000000000E+00 -0.60541193504E+03  0.60541193504E+03  0.25500000920E-02 0. -1.
    10030    2    1    2    0    0  0.00000000000E+00  0.00000000000E+00  0.54936906581E+03  0.17601929359E+04  0.16722657687E+04 0.  0.
        2    1    3    3  502    0  0.50831716649E+03 -0.36641955725E+03 -0.30801939073E+03  0.69823031928E+03  0.25500000920E-02 0. -1.
       -2    1    3    3    0  502 -0.50831716649E+03  0.36641955725E+03  0.85738845654E+03  0.10619626166E+04  0.25500000920E-02 0.  1.
</event>
<event>
 5   0  0.6601906E-05  0.1682961E+04  0.7818609E-02  0.8771142E-01
       -1   -1    0    0    0  501  0.00000000000E+00  0.00000000000E+00  0.64966685654E+03  0.64966685656E+03  0.50400001928E-02 0. -1.
        1   -1    0    0  501    0  0.00000000000E+00  0.00000000000E+00 -0.10899273462E+04  0.10899273462E+04  0.50400001928E-02 0.  1.
    10030    2    1    2    0    0  0.00000000000E+00  0.00000000000E+00 -0.44026048962E+03  0.17395942027E+04  0.16829612864E+04 0.  0.
        1    1    3    3  502    0 -0.29637007046E+03  0.39076807902E+02 -0.10331919760E+04  0.10755686286E+04  0.50400001928E-02 0.  1.
       -1    1    3    3    0  502  0.29637007046E+03 -0.39076807902E+02  0.59293148635E+03  0.66402557413E+03  0.50400001928E-02 0. -1.
</event>
<event>
 5   0  0.4720875E-05  0.1699551E+04  0.7818609E-02  0.8761621E-01
        3   -1    0    0  501    0  0.00000000000E+00  0.00000000000E+00  0.51065014398E+03  0.51065015397E+03  0.10100000352E+00 0. -1.
       -3   -1    0    0    0  501  0.00000000000E+00  0.00000000000E+00 -0.14141153319E+04  0.14141153355E+04  0.10100000352E+00 0.  1.
    10030    2    1    2    0    0  0.00000000000E+00  0.00000000000E+00 -0.90346518795E+03  0.19247654895E+04  0.16995507771E+04 0.  0.
        3    1    3    3  502    0  0.53216525427E+03  0.53927302198E+03 -0.15894151002E+02  0.75780464787E+03  0.10100000352E+00 0.  1.
       -3    1    3    3    0  502 -0.53216525427E+03 -0.53927302198E+03 -0.88757103695E+03  0.11669608416E+04  0.10100000352E+00 0. -1.
</event>
<event>
 5   0  0.6601906E-05  0.1699156E+04  0.7818609E-02  0.8761846E-01
       -1   -1    0    0    0  501  0.00000000000E+00  0.00000000000E+00  0.77897504615E+03  0.77897504617E+03  0.50400001928E-02 0.  1.
        1   -1    0    0  501    0  0.00000000000E+00  0.00000000000E+00 -0.92658012518E+03  0.92658012519E+03  0.50400001928E-02 0. -1.
    10030    2    1    2    0    0  0.00000000000E+00  0.00000000000E+00 -0.14760507903E+03  0.17055551714E+04  0.16991560209E+04 0.  0.
        1    1    3    3  502    0  0.23774478808E+03  0.70745323372E+03 -0.48125013646E+03  0.88803961400E+03  0.50400001928E-02 0. -1.
       -1    1    3    3    0  502 -0.23774478808E+03 -0.70745323372E+03  0.33364505743E+03  0.81751555736E+03  0.50400001928E-02 0.  1.
</event>
<event>
 5   0  0.1333546E-04  0.1701146E+04  0.7818609E-02  0.8760711E-01
       -2   -1    0    0    0  501  0.00000000000E+00  0.00000000000E+00  0.35357348170E+03  0.35357348171E+03  0.25500000920E-02 0. -1.
        2   -1    0    0  501    0  0.00000000000E+00  0.00000000000E+00 -0.20461792611E+04  0.20461792611E+04  0.25500000920E-02 0.  1.
    10030    2    1    2    0    0  0.00000000000E+00  0.00000000000E+00 -0.16926057794E+04  0.23997527428E+04  0.17011463494E+04 0.  0.
        5    1    3    3  502    0  0.25262980919E+03  0.41292678649E+03 -0.18328856992E+04  0.18957379639E+04  0.46999998093E+01 0.  1.
       -5    1    3    3    0  502 -0.25262980919E+03 -0.41292678649E+03  0.14027991977E+03  0.50401477893E+03  0.46999998093E+01 0. -1.
</event>
<event>
 5   0  0.1393870E-04  0.1702943E+04  0.7818609E-02  0.8759687E-01
       -2   -1    0    0    0  501  0.00000000000E+00  0.00000000000E+00  0.40737912072E+03  0.40737912073E+03  0.25500000920E-02 0. -1.
        2   -1    0    0  501    0  0.00000000000E+00  0.00000000000E+00 -0.17796791690E+04  0.17796791690E+04  0.25500000920E-02 0.  1.
    10030    2    1    2    0    0  0.00000000000E+00  0.00000000000E+00 -0.13723000483E+04  0.21870582897E+04  0.17029434929E+04 0.  0.
        3    1    3    3  502    0 -0.52792357103E+03 -0.55101958134E+03 -0.11712586600E+04  0.13979172847E+04  0.10100000352E+00 0.  1.
       -3    1    3    3    0  502  0.52792357103E+03  0.55101958134E+03 -0.20104138823E+03  0.78914100505E+03  0.10100000352E+00 0. -1.
</event>
<event>
 5   0  0.1333546E-04  0.1706705E+04  0.7818609E-02  0.8757550E-01
       -2   -1    0    0    0  501  0.00000000000E+00  0.00000000000E+00  0.41880162563E+03  0.41880162564E+03  0.25500000920E-02 0.  1.
        2   -1    0    0  501    0  0.00000000000E+00  0.00000000000E+00 -0.17387950778E+04  0.17387950778E+04  0.25500000920E-02 0. -1.
    10030    2    1    2    0    0  0.00000000000E+00  0.00000000000E+00 -0.13199934521E+04  0.21575967034E+04  0.17067046672E+04 0.  0.
        5    1    3    3  502    0  0.68758956484E+02  0.73273110270E+03 -0.12060405589E+04  0.14128618413E+04  0.46999998093E+01 0. -1.
       -5    1    3    3    0  502 -0.68758956484E+02 -0.73273110270E+03 -0.11395289326E+03  0.74473486211E+03  0.46999998093E+01 0.  1.
</event>
<event>
 5   0  0.6539134E-05  0.1700064E+04  0.7818609E-02  0.8761328E-01
        1   -1    0    0  501    0  0.00000000000E+00  0.00000000000E+00  0.11890727367E+04  0.11890727367E+04  0.50400001928E-02 0. -1.
       -1   -1    0    0    0  501  0.00000000000E+00  0.00000000000E+00 -0.60766213077E+03  0.60766213079E+03  0.50400001928E-02 0.  1.
    10030    2    1    2    0    0  0.00000000000E+00  0.00000000000E+00  0.58141060597E+03  0.17967348675E+04  0.17000640845E+04 0.  0.
        2    1    3    3  502    0  0.67083180024E+03  0.37120437558E+03 -0.97246181488E+02  0.77282909656E+03  0.25500000920E-02 0.  1.
       -2    1    3    3    0  502 -0.67083180024E+03 -0.37120437558E+03  0.67865678746E+03  0.10239057710E+04  0.25500000920E-02 0. -1.
</event>
<event>
 5   0  0.1285639E-04  0.1646109E+04  0.7818609E-02  0.8792712E-01
        2   -1    0    0  501    0  0.00000000000E+00  0.00000000000E+00  0.15337132025E+04  0.15337132025E+04  0.25500000920E-02 0.  1.
       -2   -1    0    0    0  501  0.00000000000E+00  0.00000000000E+00 -0.44168514143E+03  0.44168514144E+03  0.25500000920E-02 0. -1.
    10030    2    1    2    0    0  0.00000000000E+00  0.00000000000E+00  0.10920280610E+04  0.19753983439E+04  0.16461085417E+04 0.  0.
        4    1    3    3  502    0 -0.48658618317E+03 -0.64732027397E+03  0.36953421100E+03  0.89013863905E+03  0.12699999809E+01 0. -1.
       -4    1    3    3    0  502  0.48658618317E+03  0.64732027397E+03  0.72249385003E+03  0.10852597048E+04  0.12699999809E+01 0.  1.
</event>
<event>
 5   0  0.6601906E-05  0.1698714E+04  0.7818609E-02  0.8762098E-01
        1   -1    0    0  501    0  0.00000000000E+00  0.00000000000E+00  0.21458767827E+04  0.21458767827E+04  0.50400001928E-02 0. -1.
       -1   -1    0    0    0  501  0.00000000000E+00  0.00000000000E+00 -0.33618315826E+03  0.33618315830E+03  0.50400001928E-02 0.  1.
    10030    2    1    2    0    0  0.00000000000E+00  0.00000000000E+00  0.18096936245E+04  0.24820599410E+04  0.16987143775E+04 0.  0.
        1    1    3    3  502    0  0.19290330890E+03  0.80247108038E+03  0.11979360764E+04  0.14547241541E+04  0.50400001928E-02 0. -1.
       -1    1    3    3    0  502 -0.19290330890E+03 -0.80247108038E+03  0.61175754810E+03  0.10273357869E+04  0.50400001928E-02 0.  1.
</event>
<event>
 5   0  0.1393870E-04  0.1697093E+04  0.7818609E-02  0.8763024E-01
       -2   -1    0    0    0  501  0.00000000000E+00  0.00000000000E+00  0.56270171250E+03  0.56270171250E+03  0.25500000920E-02 0.  1.
        2   -1    0    0  501    0  0.00000000000E+00  0.00000000000E+00 -0.12795961246E+04  0.12795961246E+04  0.25500000920E-02 0. -1.
    10030    2    1    2    0    0  0.00000000000E+00  0.00000000000E+00 -0.71689441209E+03  0.18422978371E+04  0.16970927265E+04 0.  0.
        3    1    3    3  502    0 -0.49947842242E+03  0.53930926267E+03 -0.81862492167E+03  0.11002181365E+04  0.10100000352E+00 0. -1.
       -3    1    3    3    0  502  0.49947842242E+03 -0.53930926267E+03  0.10173050959E+03  0.74207970060E+03  0.10100000352E+00 0.  1.
</event>
<event>
 5   0  0.6601906E-05  0.1696477E+04  0.7818609E-02  0.8763376E-01
        1   -1    0    0  501    0  0.00000000000E+00  0.00000000000E+00  0.17016164152E+04  0.17016164152E+04  0.50400001928E-02 0. -1.
       -1   -1    0    0    0  501  0.00000000000E+00  0.00000000000E+00 -0.42283848675E+03  0.42283848678E+03  0.50400001928E-02 0.  1.
    10030    2    1    2    0    0  0.00000000000E+00  0.00000000000E+00  0.12787779284E+04  0.21244549019E+04  0.16964774211E+04 0.  0.
        1    1    3    3  502    0 -0.63202974182E+03  0.50791951373E+03  0.32741158681E+03  0.87443820489E+03  0.50400001928E-02 0.  1.
       -1    1    3    3    0  502  0.63202974182E+03 -0.50791951373E+03  0.95136634159E+03  0.12500166970E+04  0.50400001928E-02 0. -1.
</event>
<event>
 5   0  0.1333546E-04  0.1697143E+04  0.7818609E-02  0.8762995E-01
        2   -1    0    0  501    0  0.00000000000E+00  0.00000000000E+00  0.77812053903E+03  0.77812053904E+03  0.25500000920E-02 0.  1.
       -2   -1    0    0    0  501  0.00000000000E+00  0.00000000000E+00 -0.92540130825E+03  0.92540130826E+03  0.25500000920E-02 0. -1.
    10030    2    1    2    0    0  0.00000000000E+00  0.00000000000E+00 -0.14728076922E+03  0.17035218473E+04  0.16971432053E+04 0.  0.
        5    1    3    3  502    0 -0.47725351815E+03  0.47149178858E+03 -0.59518563688E+03  0.89685197197E+03  0.46999998093E+01 0. -1.
       -5    1    3    3    0  502  0.47725351815E+03 -0.47149178858E+03  0.44790486766E+03  0.80666987532E+03  0.46999998093E+01 0.  1.
</event>
<event>
 5   0  0.4720875E-05  0.1706570E+04  0.7818609E-02  0.8757626E-01
       -3   -1    0    0    0  501  0.00000000000E+00  0.00000000000E+00  0.51058391462E+03  0.51058392461E+03  0.10100000352E+00 0.  1.
        3   -1    0    0  501    0  0.00000000000E+00  0.00000000000E+00 -0.14260055133E+04  0.14260055168E+04  0.10100000352E+00 0. -1.
    10030    2    1    2    0    0  0.00000000000E+00  0.00000000000E+00 -0.91542159865E+03  0.19365894415E+04  0.17065702334E+04 0.  0.
        5    1    3    3  502    0 -0.63376641226E+03  0.29435465707E+03 -0.10133716412E+04  0.12309543869E+04  0.46999998093E+01 0. -1.
       -5    1    3    3    0  502  0.63376641226E+03 -0.29435465707E+03  0.97950042499E+02  0.70563505460E+03  0.46999998093E+01 0.  1.
</event>
<event>
 5   0  0.6564887E-05  0.1704696E+04  0.7818609E-02  0.8758691E-01
       -1   -1    0    0    0  501  0.00000000000E+00  0.00000000000E+00  0.78658566618E+03  0.78658566619E+03  0.50400001928E-02 0. -1.
        1   -1    0    0  501    0  0.00000000000E+00  0.00000000000E+00 -0.92360837348E+03  0.92360837349E+03  0.50400001928E-02 0.  1.
    10030    2    1    2    0    0  0.00000000000E+00  0.00000000000E+00 -0.13702270730E+03  0.17101940397E+04  0.17046959937E+04 0.  0.
        4    1    3    3  502    0  0.11166490969E+03  0.33057902369E+03  0.71164960782E+03  0.79258962911E+03  0.12699999809E+01 0. -1.
       -4    1    3    3    0  502 -0.11166490969E+03 -0.33057902369E+03 -0.84867231512E+03  0.91760441058E+03  0.12699999809E+01 0.  1.
</event>
<event>
 5   0  0.1269175E-04  0.1697862E+04  0.7818609E-02  0.8762585E-01
       -2   -1    0    0    0  501  0.00000000000E+00  0.00000000000E+00  0.48021981662E+03  0.48021981663E+03  0.25500000920E-02 0. -1.
        2   -1    0    0  501    0  0.00000000000E+00  0.00000000000E+00 -0.15007370701E+04  0.15007370701E+04  0.25500000920E-02 0.  1.
    10030    2    1    2    0    0  0.00000000000E+00  0.00000000000E+00 -0.10205172535E+04  0.19809568867E+04  0.16978618090E+04 0.  0.
        2    1    3    3  502    0  0.50225861178E+03 -0.14564888056E+03  0.26997861363E+03  0.58852847114E+03  0.25500000920E-02 0. -1.
       -2    1    3    3    0  502 -0.50225861178E+03  0.14564888056E+03 -0.12904958671E+04  0.13924284156E+04  0.25500000920E-02 0.  1.
</event>
<event>
 5   0  0.1393870E-04  0.1700716E+04  0.7818609E-02  0.8760956E-01
       -2   -1    0    0    0  501  0.00000000000E+00  0.00000000000E+00  0.45718096095E+03  0.45718096096E+03  0.25500000920E-02 0. -1.
        2   -1    0    0  501    0  0.00000000000E+00  0.00000000000E+00 -0.15816689986E+04  0.15816689986E+04  0.25500000920E-02 0.  1.
    10030    2    1    2    0    0  0.00000000000E+00  0.00000000000E+00 -0.11244880377E+04  0.20388499596E+04  0.17007162641E+04 0.  0.
        3    1    3    3  502    0  0.47549519093E+03  0.16241987445E+03  0.26017778017E+03  0.56583423342E+03  0.10100000352E+00 0. -1.
       -3    1    3    3    0  502 -0.47549519093E+03 -0.16241987445E+03 -0.13846658178E+04  0.14730157262E+04  0.10100000352E+00 0.  1.
</event>
<event>
 5   0  0.6834837E-05  0.1735525E+04  0.7818609E-02  0.8741358E-01
        1   -1    0    0  501    0  0.00000000000E+00  0.00000000000E+00  0.13357644182E+04  0.13357644183E+04  0.50400001928E-02 0.  1.
       -1   -1    0    0    0  501  0.00000000000E+00  0.00000000000E+00 -0.56373113007E+03  0.56373113009E+03  0.50400001928E-02 0. -1.
    10030    2    1    2    0    0  0.00000000000E+00  0.00000000000E+00  0.77203328818E+03  0.18994955483E+04  0.17355252635E+04 0.  0.
        5    1    3    3  502    0 -0.74213149992E+03 -0.15796555262E+03 -0.74806509437E+02  0.76245024942E+03  0.46999998093E+01 0. -1.
       -5    1    3    3    0  502  0.74213149992E+03  0.15796555262E+03  0.84683979762E+03  0.11370452989E+04  0.46999998093E+01 0.  1.
</event>
<event>
 5   0  0.4720875E-05  0.1696787E+04  0.7818609E-02  0.8763199E-01
       -4   -1    0    0    0  501  0.00000000000E+00  0.00000000000E+00  0.35881333950E+03  0.35881558704E+03  0.12699999809E+01 0. -1.
        4   -1    0    0  501    0  0.00000000000E+00  0.00000000000E+00 -0.20059685634E+04  0.20059689654E+04  0.12699999809E+01 0.  1.
    10030    2    1    2    0    0  0.00000000000E+00  0.00000000000E+00 -0.16471552239E+04  0.23647845525E+04  0.16967868599E+04 0.  0.
        5    1    3    3  502    0 -0.65885388149E+03 -0.46444878755E+03 -0.45497994189E+03  0.92565109568E+03  0.46999998093E+01 0. -1.
       -5    1    3    3    0  502  0.65885388149E+03  0.46444878755E+03 -0.11921752820E+04  0.14391334568E+04  0.46999998093E+01 0.  1.
</event>
<event>
 5   0  0.1285639E-04  0.1689055E+04  0.7818609E-02  0.8767632E-01
       -2   -1    0    0    0  501  0.00000000000E+00  0.00000000000E+00  0.58120676269E+03  0.58120676269E+03  0.25500000920E-02 0.  1.
        2   -1    0    0  501    0  0.00000000000E+00  0.00000000000E+00 -0.12271474892E+04  0.12271474892E+04  0.25500000920E-02 0. -1.
    10030    2    1    2    0    0  0.00000000000E+00  0.00000000000E+00 -0.64594072647E+03  0.18083542519E+04  0.16890546700E+04 0.  0.
        4    1    3    3  502    0  0.60815238338E+03 -0.54484137450E+03 -0.55389770156E+03  0.98666393543E+03  0.12699999809E+01 0. -1.
       -4    1    3    3    0  502 -0.60815238338E+03  0.54484137450E+03 -0.92043024911E+02  0.82169031643E+03  0.12699999809E+01 0.  1.
</event>
<event>
 5   0  0.1269175E-04  0.1705692E+04  0.7818609E-02  0.8758125E-01
        2   -1    0    0  501    0  0.00000000000E+00  0.00000000000E+00  0.10248521966E+04  0.10248521966E+04  0.25500000920E-02 0.  1.
       -2   -1    0    0    0  501  0.00000000000E+00  0.00000000000E+00 -0.70970820960E+03  0.70970820960E+03  0.25500000920E-02 0. -1.
    10030    2    1    2    0    0  0.00000000000E+00  0.00000000000E+00  0.31514398704E+03  0.17345604062E+04  0.17056916692E+04 0.  0.
        2    1    3    3  502    0 -0.54643928416E+03 -0.86350384493E+02  0.81762893419E+03  0.98720279284E+03  0.25500000920E-02 0.  1.
       -2    1    3    3    0  502  0.54643928416E+03  0.86350384493E+02 -0.50248494715E+03  0.74735761339E+03  0.25500000920E-02 0. -1.
</event>
<event>
 5   0  0.6539134E-05  0.1699134E+04  0.7818609E-02  0.8761858E-01
       -1   -1    0    0    0  501  0.00000000000E+00  0.00000000000E+00  0.16402805161E+04  0.16402805161E+04  0.50400001928E-02 0.  1.
        1   -1    0    0  501    0  0.00000000000E+00  0.00000000000E+00 -0.44002496863E+03  0.44002496866E+03  0.50400001928E-02 0. -1.
    10030    2    1    2    0    0  0.00000000000E+00  0.00000000000E+00  0.12002555475E+04  0.20803054848E+04  0.16991343475E+04 0.  0.
        2    1    3    3  502    0  0.44814471450E+03  0.71608997034E+03  0.48962640678E+03  0.97639774118E+03  0.25500000920E-02 0.  1.
       -2    1    3    3    0  502 -0.44814471450E+03 -0.71608997034E+03  0.71062914068E+03  0.11039077436E+04  0.25500000920E-02 0. -1.
</event>
<event>
 5   0  0.1269175E-04  0.1703604E+04  0.7818609E-02  0.8759311E-01
       -2   -1    0    0    0  501  0.00000000000E+00  0.00000000000E+00  0.43787122873E+03  0.43787122874E+03  0.25500000920E-02 0. -1.
        2   -1    0    0  501    0  0.00000000000E+00  0.00000000000E+00 -0.16570327685E+04  0.16570327685E+04  0.25500000920E-02 0.  1.
    10030    2    1    2    0    0  0.00000000000E+00  0.00000000000E+00 -0.12191615398E+04  0.20949039972E+04  0.17036043841E+04 0.  0.
        2    1    3    3  502    0 -0.13435158747E+03 -0.31718655126E+03 -0.15675626149E+04  0.16049642392E+04  0.25500000920E-02 0.  1.
       -2    1    3    3    0  502  0.13435158747E+03  0.31718655126E+03  0.34840107515E+03  0.48993975806E+03  0.25500000920E-02 0. -1.
</event>
<event>
 5   0  0.1333546E-04  0.1697682E+04  0.7818609E-02  0.8762687E-01
       -2   -1    0    0    0  501  0.00000000000E+00  0.00000000000E+00  0.45298222522E+03  0.45298222523E+03  0.25500000920E-02 0. -1.
        2   -1    0    0  501    0  0.00000000000E+00  0.00000000000E+00 -0.15906388702E+04  0.15906388702E+04  0.25500000920E-02 0.  1.
    10030    2    1    2    0    0  0.00000000000E+00  0.00000000000E+00 -0.11376566450E+04  0.20436210954E+04  0.16976821080E+04 0.  0.
        5    1    3    3  502    0 -0.48264821618E+03 -0.31205825349E+03 -0.13207561691E+04  0.14403987650E+04  0.46999998093E+01 0.  1.
       -5    1    3    3    0  502  0.48264821618E+03  0.31205825349E+03  0.18309952410E+03  0.60322233039E+03  0.46999998093E+01 0. -1.
</event>
<event>
 5   0  0.1285639E-04  0.1703828E+04  0.7818609E-02  0.8759184E-01
       -2   -1    0    0    0  501  0.00000000000E+00  0.00000000000E+00  0.75304291227E+03  0.75304291228E+03  0.25500000920E-02 0. -1.
        2   -1    0    0  501    0  0.00000000000E+00  0.00000000000E+00 -0.96376598403E+03  0.96376598404E+03  0.25500000920E-02 0.  1.
    10030    2    1    2    0    0  0.00000000000E+00  0.00000000000E+00 -0.21072307176E+03  0.17168088963E+04  0.17038276243E+04 0.  0.
        4    1    3    3  502    0 -0.68799359588E+03  0.33338337632E+03 -0.48409204381E+03  0.90489026039E+03  0.12699999809E+01 0.  1.
       -4    1    3    3    0  502  0.68799359588E+03 -0.33338337632E+03  0.27336897204E+03  0.81191863592E+03  0.12699999809E+01 0. -1.
</event>
<event>
 5   0  0.1269175E-04  0.1698794E+04  0.7818609E-02  0.8762053E-01
       -2   -1    0    0    0  501  0.00000000000E+00  0.00000000000E+00  0.38425413403E+03  0.38425413404E+03  0.25500000920E-02 0. -1.
        2   -1    0    0  501    0  0.00000000000E+00  0.00000000000E+00 -0.18775983914E+04  0.18775983914E+04  0.25500000920E-02 0.  1.
    10030    2    1    2    0    0  0.00000000000E+00  0.00000000000E+00 -0.14933442574E+04  0.22618525254E+04  0.16987936237E+04 0.  0.
        2    1    3    3  502    0 -0.40748815649E+03 -0.19248474369E+03  0.21194885483E+03  0.49801535248E+03  0.25500000920E-02 0. -1.
       -2    1    3    3    0  502  0.40748815649E+03  0.19248474369E+03 -0.17052931122E+04  0.17638371730E+04  0.25500000920E-02 0.  1.
</event>
<event>
 5   0  0.4720875E-05  0.1720702E+04  0.7818609E-02  0.8749645E-01
       -4   -1    0    0    0  501  0.00000000000E+00  0.00000000000E+00  0.10299042442E+04  0.10299050273E+04  0.12699999809E+01 0. -1.
        4   -1    0    0  501    0  0.00000000000E+00  0.00000000000E+00 -0.71870963852E+03  0.71871076060E+03  0.12699999809E+01 0.  1.
    10030    2    1    2    0    0  0.00000000000E+00  0.00000000000E+00  0.31119460571E+03  0.17486157879E+04  0.17207019181E+04 0.  0.
        4    1    3    3  502    0 -0.94756644896E+02  0.78873894961E+03  0.49128034603E+03  0.93404814848E+03  0.12699999809E+01 0. -1.
       -4    1    3    3    0  502  0.94756644896E+02 -0.78873894961E+03 -0.18008574032E+03  0.81456763939E+03  0.12699999809E+01 0.  1.
</event>
<event>
 5   0  0.6601906E-05  0.1697405E+04  0.7818609E-02  0.8762845E-01
       -1   -1    0    0    0  501  0.00000000000E+00  0.00000000000E+00  0.41393563062E+03  0.41393563065E+03  0.50400001928E-02 0. -1.
        1   -1    0    0  501    0  0.00000000000E+00  0.00000000000E+00 -0.17401167467E+04  0.17401167467E+04  0.50400001928E-02 0.  1.
    10030    2    1    2    0    0  0.00000000000E+00  0.00000000000E+00 -0.13261811161E+04  0.21540523774E+04  0.16974054589E+04 0.  0.
        1    1    3    3  502    0  0.64666443347E+03  0.53699783392E+03 -0.81192284999E+03  0.11686574680E+04  0.50400001928E-02 0.  1.
       -1    1    3    3    0  502 -0.64666443347E+03 -0.53699783392E+03 -0.51425826612E+03  0.98539490939E+03  0.50400001928E-02 0. -1.
</event>
<event>
 5   0  0.1393870E-04  0.1697917E+04  0.7818609E-02  0.8762553E-01
        2   -1    0    0  501    0  0.00000000000E+00  0.00000000000E+00  0.14080624343E+04  0.14080624343E+04  0.25500000920E-02 0. -1.
       -2   -1    0    0    0  501  0.00000000000E+00  0.00000000000E+00 -0.51185956521E+03  0.51185956521E+03  0.25500000920E-02 0.  1.
    10030    2    1    2    0    0  0.00000000000E+00  0.00000000000E+00  0.89620286906E+03  0.19199219995E+04  0.16979166356E+04 0.  0.
        3    1    3    3  502    0  0.76949276037E+03  0.16036355173E+03  0.85388039997E+02  0.79064954599E+03  0.10100000352E+00 0.  1.
       -3    1    3    3    0  502 -0.76949276037E+03 -0.16036355173E+03  0.81081482906E+03  0.11292724535E+04  0.10100000352E+00 0. -1.
</event>
<event>
 5   0  0.6601906E-05  0.1683303E+04  0.7818609E-02  0.8770945E-01
       -1   -1    0    0    0  501  0.00000000000E+00  0.00000000000E+00  0.53212381754E+03  0.53212381756E+03  0.50400001928E-02 0. -1.
        1   -1    0    0  501    0  0.00000000000E+00  0.00000000000E+00 -0.13312258262E+04  0.13312258262E+04  0.50400001928E-02 0.  1.
    10030    2    1    2    0    0  0.00000000000E+00  0.00000000000E+00 -0.79910200867E+03  0.18633496438E+04  0.16833026688E+04 0.  0.
        1    1    3    3  502    0 -0.36302189183E+03  0.62923917612E+03  0.70939959291E+02  0.72990363238E+03  0.50400001928E-02 0. -1.
       -1    1    3    3    0  502  0.36302189183E+03 -0.62923917612E+03 -0.87004196796E+03  0.11334460114E+04  0.50400001928E-02 0.  1.
</event>
<event>
 5   0  0.1269175E-04  0.1697656E+04  0.7818609E-02  0.8762703E-01
        2   -1    0    0  501    0  0.00000000000E+00  0.00000000000E+00  0.13804424855E+04  0.13804424855E+04  0.25500000920E-02 0. -1.
       -2   -1    0    0    0  501  0.00000000000E+00  0.00000000000E+00 -0.52194037889E+03  0.52194037890E+03  0.25500000920E-02 0.  1.
    10030    2    1    2    0    0  0.00000000000E+00  0.00000000000E+00  0.85850210664E+03  0.19023828644E+04  0.16976556470E+04 0.  0.
        2    1    3    3  502    0  0.34674137698E+03 -0.39968611749E+03 -0.31451459540E+03  0.61554691596E+03  0.25500000920E-02 0.  1.
       -2    1    3    3    0  502 -0.34674137698E+03  0.39968611749E+03  0.11730167020E+04  0.12868359485E+04  0.25500000920E-02 0. -1.
</event>
<event>
 5   0  0.1333546E-04  0.1701480E+04  0.7818609E-02  0.8760521E-01
       -2   -1    0    0    0  501  0.00000000000E+00  0.00000000000E+00  0.61177387070E+03  0.61177387071E+03  0.25500000920E-02 0.  1.
        2   -1    0    0  501    0  0.00000000000E+00  0.00000000000E+00 -0.11830491790E+04  0.11830491790E+04  0.25500000920E-02 0. -1.
    10030    2    1    2    0    0  0.00000000000E+00  0.00000000000E+00 -0.57127530829E+03  0.17948230497E+04  0.17014800328E+04 0.  0.
        5    1    3    3  502    0 -0.33134630732E+03 -0.80647973122E+02 -0.11077803352E+04  0.11590918134E+04  0.46999998093E+01 0. -1.
       -5    1    3    3    0  502  0.33134630732E+03  0.80647973122E+02  0.53650502687E+03  0.63573123630E+03  0.46999998093E+01 0.  1.
</event>
<event>
 5   0  0.6615842E-05  0.1720099E+04  0.7818609E-02  0.8749984E-01
       -1   -1    0    0    0  501  0.00000000000E+00  0.00000000000E+00  0.90937856485E+03  0.90937856486E+03  0.50400001928E-02 0. -1.
        1   -1    0    0  501    0  0.00000000000E+00  0.00000000000E+00 -0.81339596787E+03  0.81339596788E+03  0.50400001928E-02 0.  1.
    10030    2    1    2    0    0  0.00000000000E+00  0.00000000000E+00  0.95982596982E+02  0.17227745327E+04  0.17200986692E+04 0.  0.
        3    1    3    3  502    0  0.45368820056E+03  0.52136727857E+03 -0.46469174661E+03  0.83282366205E+03  0.10100000352E+00 0.  1.
       -3    1    3    3    0  502 -0.45368820056E+03 -0.52136727857E+03  0.56067434359E+03  0.88995087070E+03  0.10100000352E+00 0. -1.
</event>
<event>
 5   0  0.6601906E-05  0.1693916E+04  0.7818609E-02  0.8764842E-01
        1   -1    0    0  501    0  0.00000000000E+00  0.00000000000E+00  0.17533534635E+04  0.17533534635E+04  0.50400001928E-02 0. -1.
       -1   -1    0    0    0  501  0.00000000000E+00  0.00000000000E+00 -0.40912312560E+03  0.40912312563E+03  0.50400001928E-02 0.  1.
    10030    2    1    2    0    0  0.00000000000E+00  0.00000000000E+00  0.13442303379E+04  0.21624765891E+04  0.16939155224E+04 0.  0.
        1    1    3    3  502    0  0.76699515991E+03  0.23718478443E+03  0.10165627389E+04  0.12953524615E+04  0.50400001928E-02 0. -1.
       -1    1    3    3    0  502 -0.76699515991E+03 -0.23718478443E+03  0.32766759897E+03  0.86712412763E+03  0.50400001928E-02 0.  1.
</event>
<event>
 5   0  0.6834837E-05  0.1700874E+04  0.7818609E-02  0.8760866E-01
        1   -1    0    0  501    0  0.00000000000E+00  0.00000000000E+00  0.18833910307E+04  0.18833910307E+04  0.50400001928E-02 0.  1.
       -1   -1    0    0    0  501  0.00000000000E+00  0.00000000000E+00 -0.38401091909E+03  0.38401091912E+03  0.50400001928E-02 0. -1.
    10030    2    1    2    0    0  0.00000000000E+00  0.00000000000E+00  0.14993801116E+04  0.22674019498E+04  0.17008735647E+04 0.  0.
        5    1    3    3  502    0  0.14034064875E+03 -0.63053262460E+03  0.14870581967E+04  0.16213053564E+04  0.46999998093E+01 0.  1.
       -5    1    3    3    0  502 -0.14034064875E+03  0.63053262460E+03  0.12321914864E+02  0.64609659337E+03  0.46999998093E+01 0. -1.
</event>
<event>
 5   0  0.4720875E-05  0.1698914E+04  0.7818609E-02  0.8761984E-01
        3   -1    0    0  501    0  0.00000000000E+00  0.00000000000E+00  0.19619815531E+04  0.19619815557E+04  0.10100000352E+00 0. -1.
       -3   -1    0    0    0  501  0.00000000000E+00  0.00000000000E+00 -0.36777965288E+03  0.36777966675E+03  0.10100000352E+00 0.  1.
    10030    2    1    2    0    0  0.00000000000E+00  0.00000000000E+00  0.15942019002E+04  0.23297612224E+04  0.16989136691E+04 0.  0.
        5    1    3    3  502    0  0.19655090112E+03 -0.76744144523E+03  0.12174429754E+04  0.14525109697E+04  0.46999998093E+01 0. -1.
       -5    1    3    3    0  502 -0.19655090112E+03  0.76744144523E+03  0.37675892478E+03  0.87725025277E+03  0.46999998093E+01 0.  1.
</event>
<event>
 5   0  0.4720875E-05  0.1702081E+04  0.7818609E-02  0.8760178E-01
       -3   -1    0    0    0  501  0.00000000000E+00  0.00000000000E+00  0.27940278994E+03  0.27940280819E+03  0.10100000352E+00 0.  1.
        3   -1    0    0  501    0  0.00000000000E+00  0.00000000000E+00 -0.25922075417E+04  0.25922075436E+04  0.10100000352E+00 0. -1.
    10030    2    1    2    0    0  0.00000000000E+00  0.00000000000E+00 -0.23128047517E+04  0.28716103518E+04  0.17020811359E+04 0.  0.
        1    1    3    3  502    0 -0.11209244125E+03 -0.35106241595E+03 -0.24506098834E+04  0.24781643077E+04  0.50400001928E-02 0. -1.
       -1    1    3    3    0  502  0.11209244125E+03  0.35106241595E+03  0.13780513170E+03  0.39344604411E+03  0.50400001928E-02 0.  1.
</event>
<event>
 5   0  0.6615842E-05  0.1684522E+04  0.7818609E-02  0.8770242E-01
        1   -1    0    0  501    0  0.00000000000E+00  0.00000000000E+00  0.13973474440E+04  0.13973474440E+04  0.50400001928E-02 0. -1.
       -1   -1    0    0    0  501  0.00000000000E+00  0.00000000000E+00 -0.50767860623E+03  0.50767860626E+03  0.50400001928E-02 0.  1.
    10030    2    1    2    0    0  0.00000000000E+00  0.00000000000E+00  0.88966883777E+03  0.19050260503E+04  0.16845217753E+04 0.  0.
        3    1    3    3  502    0  0.82315328903E+03  0.16160820395E+03  0.53025178356E+03  0.99240390617E+03  0.10100000352E+00 0. -1.
       -3    1    3    3    0  502 -0.82315328903E+03 -0.16160820395E+03  0.35941705422E+03  0.91262214409E+03  0.10100000352E+00 0.  1.
</event>
<event>
 5   0  0.1333546E-04  0.1697188E+04  0.7818609E-02  0.8762970E-01
       -2   -1    0    0    0  501  0.00000000000E+00  0.00000000000E+00  0.49849308257E+03  0.49849308258E+03  0.25500000920E-02 0. -1.
        2   -1    0    0  501    0  0.00000000000E+00  0.00000000000E+00 -0.14445768747E+04  0.14445768747E+04  0.25500000920E-02 0.  1.
    10030    2    1    2    0    0  0.00000000000E+00  0.00000000000E+00 -0.94608379208E+03  0.19430699572E+04  0.16971877672E+04 0.  0.
        5    1    3    3  502    0  0.40016056836E+03 -0.16855219818E+02 -0.13295416436E+04  0.13885660413E+04  0.46999998093E+01 0.  1.
       -5    1    3    3    0  502 -0.40016056836E+03  0.16855219818E+02  0.38345785153E+03  0.55450391595E+03  0.46999998093E+01 0. -1.
</event>
<event>
 5   0  0.4720875E-05  0.1701837E+04  0.7818609E-02  0.8760318E-01
        3   -1    0    0  501    0  0.00000000000E+00  0.00000000000E+00  0.26601764742E+04  0.26601764761E+04  0.10100000352E+00 0. -1.
       -3   -1    0    0    0  501  0.00000000000E+00  0.00000000000E+00 -0.27218567007E+03  0.27218568881E+03  0.10100000352E+00 0.  1.
    10030    2    1    2    0    0  0.00000000000E+00  0.00000000000E+00  0.23879908041E+04  0.29323621649E+04  0.17018365919E+04 0.  0.
        1    1    3    3  502    0 -0.71674941423E+03  0.45603959465E+03  0.12777032214E+04  0.15343491639E+04  0.50400001928E-02 0. -1.
       -1    1    3    3    0  502  0.71674941423E+03 -0.45603959465E+03  0.11102875827E+04  0.13980130010E+04  0.50400001928E-02 0.  1.
</event>
<event>
 5   0  0.1333546E-04  0.1700525E+04  0.7818609E-02  0.8761065E-01
       -2   -1    0    0    0  501  0.00000000000E+00  0.00000000000E+00  0.88262251787E+03  0.88262251787E+03  0.25500000920E-02 0.  1.
        2   -1    0    0  501    0  0.00000000000E+00  0.00000000000E+00 -0.81908844777E+03  0.81908844778E+03  0.25500000920E-02 0. -1.
    10030    2    1    2    0    0  0.00000000000E+00  0.00000000000E+00  0.63534070095E+02  0.17017109656E+04  0.17005245169E+04 0.  0.
        5    1    3    3  502    0 -0.45937183040E+03 -0.27644939343E+01  0.74773368124E+03  0.87758638837E+03  0.46999998093E+01 0.  1.
       -5    1    3    3    0  502  0.45937183040E+03  0.27644939343E+01 -0.68419961114E+03  0.82412457728E+03  0.46999998093E+01 0. -1.
</event>
<event>
 5   0  0.6601906E-05  0.1699232E+04  0.7818609E-02  0.8761803E-01
       -1   -1    0    0    0  501  0.00000000000E+00  0.00000000000E+00  0.16076311980E+04  0.16076311980E+04  0.50400001928E-02 0. -1.
        1   -1    0    0  501    0  0.00000000000E+00  0.00000000000E+00 -0.44901298477E+03  0.44901298480E+03  0.50400001928E-02 0.  1.
    10030    2    1    2    0    0  0.00000000000E+00  0.00000000000E+00  0.11586182133E+04  0.20566441828E+04  0.16992319238E+04 0.  0.
        1    1    3    3  502    0 -0.34189585455E+03 -0.54902023074E+03  0.12461285263E+04  0.14039773122E+04  0.50400001928E-02 0. -1.
       -1    1    3    3    0  502  0.34189585455E+03  0.54902023074E+03 -0.87510313029E+02  0.65266687064E+03  0.50400001928E-02 0.  1.
</event>
<event>
 5   0  0.6834837E-05  0.1700440E+04  0.7818609E-02  0.8761113E-01
       -1   -1    0    0    0  501  0.00000000000E+00  0.00000000000E+00  0.41804189360E+03  0.41804189363E+03  0.50400001928E-02 0.  1.
        1   -1    0    0  501    0  0.00000000000E+00  0.00000000000E+00 -0.17291904985E+04  0.17291904985E+04  0.50400001928E-02 0. -1.
    10030    2    1    2    0    0  0.00000000000E+00  0.00000000000E+00 -0.13111486049E+04  0.21472323921E+04  0.17004400259E+04 0.  0.
        5    1    3    3  502    0  0.40200284443E+01 -0.23253395544E+03 -0.16882265693E+04  0.17041769979E+04  0.46999998093E+01 0. -1.
       -5    1    3    3    0  502 -0.40200284443E+01  0.23253395544E+03  0.37707796441E+03  0.44305539417E+03  0.46999998093E+01 0.  1.
</event>
<event>
 5   0  0.1393870E-04  0.1699446E+04  0.7818609E-02  0.8761680E-01
       -2   -1    0    0    0  501  0.00000000000E+00  0.00000000000E+00  0.78975972929E+03  0.78975972929E+03  0.25500000920E-02 0.  1.
        2   -1    0    0  501    0  0.00000000000E+00  0.00000000000E+00 -0.91423902790E+03  0.91423902791E+03  0.25500000920E-02 0. -1.
    10030    2    1    2    0    0  0.00000000000E+00  0.00000000000E+00 -0.12447929861E+03  0.17039987572E+04  0.16994459888E+04 0.  0.
        3    1    3    3  502    0  0.27486299084E+03  0.80375146023E+03 -0.83816672614E+02  0.85357560788E+03  0.10100000352E+00 0.  1.
       -3    1    3    3    0  502 -0.27486299084E+03 -0.80375146023E+03 -0.40662626001E+02  0.85042314932E+03  0.10100000352E+00 0. -1.
</event>
<event>
 5   0  0.1333546E-04  0.1701835E+04  0.7818609E-02  0.8760318E-01
        2   -1    0    0  501    0  0.00000000000E+00  0.00000000000E+00  0.13160258327E+04  0.13160258327E+04  0.25500000920E-02 0. -1.
       -2   -1    0    0    0  501  0.00000000000E+00  0.00000000000E+00 -0.55018751158E+03  0.55018751159E+03  0.25500000920E-02 0.  1.
    10030    2    1    2    0    0  0.00000000000E+00  0.00000000000E+00  0.76583832115E+03  0.18662133443E+04  0.17018354540E+04 0.  0.
        5    1    3    3  502    0  0.19783087029E+03 -0.14080415222E+03  0.12772112104E+04  0.13000974689E+04  0.46999998093E+01 0. -1.
       -5    1    3    3    0  502 -0.19783087029E+03  0.14080415222E+03 -0.51137288929E+03  0.56611587544E+03  0.46999998093E+01 0.  1.
</event>
<event>
 5   0  0.4720875E-05  0.1721433E+04  0.7818609E-02  0.8749234E-01
        3   -1    0    0  501    0  0.00000000000E+00  0.00000000000E+00  0.80332472641E+03  0.80332473276E+03  0.10100000352E+00 0.  1.
       -3   -1    0    0    0  501  0.00000000000E+00  0.00000000000E+00 -0.92220849036E+03  0.92220849589E+03  0.10100000352E+00 0. -1.
    10030    2    1    2    0    0  0.00000000000E+00  0.00000000000E+00 -0.11888376395E+03  0.17255332286E+04  0.17214330001E+04 0.  0.
        3    1    3    3  502    0 -0.61729277447E+03  0.44967098297E+03  0.33846524011E+03  0.83535207626E+03  0.10100000352E+00 0.  1.
       -3    1    3    3    0  502  0.61729277447E+03 -0.44967098297E+03 -0.45734900407E+03  0.89018115239E+03  0.10100000352E+00 0. -1.
</event>
<event>
 5   0  0.1285639E-04  0.1680595E+04  0.7818609E-02  0.8772510E-01
       -2   -1    0    0    0  501  0.00000000000E+00  0.00000000000E+00  0.30383855818E+03  0.30383855819E+03  0.25500000920E-02 0. -1.
        2   -1    0    0  501    0  0.00000000000E+00  0.00000000000E+00 -0.23239310570E+04  0.23239310570E+04  0.25500000920E-02 0.  1.
    10030    2    1    2    0    0  0.00000000000E+00  0.00000000000E+00 -0.20200924989E+04  0.26277696152E+04  0.16805949681E+04 0.  0.
        4    1    3    3  502    0 -0.30315134925E+02  0.33395437236E+03 -0.22147792974E+04  0.22400208658E+04  0.12699999809E+01 0.  1.
       -4    1    3    3    0  502  0.30315134925E+02 -0.33395437236E+03  0.19468679855E+03  0.38774874939E+03  0.12699999809E+01 0. -1.
</event>
<event>
 5   0  0.6615842E-05  0.1698542E+04  0.7818609E-02  0.8762196E-01
       -1   -1    0    0    0  501  0.00000000000E+00  0.00000000000E+00  0.91111950314E+03  0.91111950315E+03  0.50400001928E-02 0.  1.
        1   -1    0    0  501    0  0.00000000000E+00  0.00000000000E+00 -0.79162086834E+03  0.79162086836E+03  0.50400001928E-02 0. -1.
    10030    2    1    2    0    0  0.00000000000E+00  0.00000000000E+00  0.11949863480E+03  0.17027403715E+04  0.16985419774E+04 0.  0.
        3    1    3    3  502    0 -0.51482248069E+03  0.63729838102E+03  0.28406520237E+03  0.86711271613E+03  0.10100000352E+00 0.  1.
       -3    1    3    3    0  502  0.51482248069E+03 -0.63729838102E+03 -0.16456656758E+03  0.83562765538E+03  0.10100000352E+00 0. -1.
</event>
<event>
 5   0  0.6564887E-05  0.1702957E+04  0.7818609E-02  0.8759680E-01
       -1   -1    0    0    0  501  0.00000000000E+00  0.00000000000E+00  0.27573391811E+03  0.27573391816E+03  0.50400001928E-02 0.  1.
        1   -1    0    0  501    0  0.00000000000E+00  0.00000000000E+00 -0.26294034609E+04  0.26294034609E+04  0.50400001928E-02 0. -1.
    10030    2    1    2    0    0  0.00000000000E+00  0.00000000000E+00 -0.23536695428E+04  0.29051373790E+04  0.17029570971E+04 0.  0.
        4    1    3    3  502    0  0.51803574278E+02  0.82953018234E+03 -0.86130481574E+03  0.11969342222E+04  0.12699999809E+01 0.  1.
       -4    1    3    3    0  502 -0.51803574278E+02 -0.82953018234E+03 -0.14923647270E+04  0.17082031569E+04  0.12699999809E+01 0. -1.
</event>
<event>
 5   0  0.6564887E-05  0.1691873E+04  0.7818609E-02  0.8766013E-01
        1   -1    0    0  501    0  0.00000000000E+00  0.00000000000E+00  0.20960075893E+04  0.20960075893E+04  0.50400001928E-02 0.  1.
       -1   -1    0    0    0  501  0.00000000000E+00  0.00000000000E+00 -0.34141493299E+03  0.34141493303E+03  0.50400001928E-02 0. -1.
    10030    2    1    2    0    0  0.00000000000E+00  0.00000000000E+00  0.17545926563E+04  0.24374225223E+04  0.16918726792E+04 0.  0.
        4    1    3    3  502    0 -0.60729259792E+03  0.18028778531E+03  0.16849672170E+04  0.18001178074E+04  0.12699999809E+01 0.  1.
       -4    1    3    3    0  502  0.60729259792E+03 -0.18028778531E+03  0.69625439274E+02  0.63730471496E+03  0.12699999809E+01 0. -1.
</event>
<event>
 5   0  0.6564887E-05  0.1708201E+04  0.7818609E-02  0.8756701E-01
        1   -1    0    0  501    0  0.00000000000E+00  0.00000000000E+00  0.85714544942E+03  0.85714544943E+03  0.50400001928E-02 0.  1.
       -1   -1    0    0    0  501  0.00000000000E+00  0.00000000000E+00 -0.85106613911E+03  0.85106613912E+03  0.50400001928E-02 0. -1.
    10030    2    1    2    0    0  0.00000000000E+00  0.00000000000E+00  0.60793103094E+01  0.17082115886E+04  0.17082007708E+04 0.  0.
        4    1    3    3  502    0  0.79314784853E+03 -0.13005149802E+03  0.29198603615E+03  0.85513411812E+03  0.12699999809E+01 0.  1.
       -4    1    3    3    0  502 -0.79314784853E+03  0.13005149802E+03 -0.28590672584E+03  0.85307747043E+03  0.12699999809E+01 0. -1.
</event>
<event>
 5   0  0.6601906E-05  0.1714428E+04  0.7818609E-02  0.8753178E-01
        1   -1    0    0  501    0  0.00000000000E+00  0.00000000000E+00  0.12593533404E+04  0.12593533404E+04  0.50400001928E-02 0. -1.
       -1   -1    0    0    0  501  0.00000000000E+00  0.00000000000E+00 -0.58348648973E+03  0.58348648976E+03  0.50400001928E-02 0.  1.
    10030    2    1    2    0    0  0.00000000000E+00  0.00000000000E+00  0.67586685069E+03  0.18428398302E+04  0.17144277879E+04 0.  0.
        1    1    3    3  502    0  0.11452249146E+02  0.88462868311E+02 -0.57848418761E+03  0.58532109856E+03  0.50400001928E-02 0.  1.
       -1    1    3    3    0  502 -0.11452249146E+02 -0.88462868311E+02  0.12543510383E+04  0.12575187316E+04  0.50400001928E-02 0. -1.
</event>
<event>
 5   0  0.6834837E-05  0.1704506E+04  0.7818609E-02  0.8758799E-01
        1   -1    0    0  501    0  0.00000000000E+00  0.00000000000E+00  0.10765204107E+04  0.10765204107E+04  0.50400001928E-02 0. -1.
       -1   -1    0    0    0  501  0.00000000000E+00  0.00000000000E+00 -0.67470605256E+03  0.67470605258E+03  0.50400001928E-02 0.  1.
    10030    2    1    2    0    0  0.00000000000E+00  0.00000000000E+00  0.40181435810E+03  0.17512264632E+04  0.17045056020E+04 0.  0.
        5    1    3    3  502    0 -0.47403120408E+03  0.70454766950E+03  0.12667904324E+03  0.85858177889E+03  0.46999998093E+01 0. -1.
       -5    1    3    3    0  502  0.47403120408E+03 -0.70454766950E+03  0.27513531486E+03  0.89264468436E+03  0.46999998093E+01 0.  1.
</event>
<event>
 5   0  0.1285639E-04  0.1682339E+04  0.7818609E-02  0.8771502E-01
       -2   -1    0    0    0  501  0.00000000000E+00  0.00000000000E+00  0.35397206908E+03  0.35397206909E+03  0.25500000920E-02 0. -1.
        2   -1    0    0  501    0  0.00000000000E+00  0.00000000000E+00 -0.19989313867E+04  0.19989313867E+04  0.25500000920E-02 0.  1.
    10030    2    1    2    0    0  0.00000000000E+00  0.00000000000E+00 -0.16449593177E+04  0.23529034558E+04  0.16823387042E+04 0.  0.
        4    1    3    3  502    0  0.38576459349E+03  0.33053954833E+03  0.11519548530E+03  0.52090529594E+03  0.12699999809E+01 0. -1.
       -4    1    3    3    0  502 -0.38576459349E+03 -0.33053954833E+03 -0.17601548030E+04  0.18319981599E+04  0.12699999809E+01 0.  1.
</event>
<event>
 5   0  0.6834837E-05  0.1693882E+04  0.7818609E-02  0.8764861E-01
       -1   -1    0    0    0  501  0.00000000000E+00  0.00000000000E+00  0.10688477506E+04  0.10688477506E+04  0.50400001928E-02 0. -1.
        1   -1    0    0  501    0  0.00000000000E+00  0.00000000000E+00 -0.67110524631E+03  0.67110524633E+03  0.50400001928E-02 0.  1.
    10030    2    1    2    0    0  0.00000000000E+00  0.00000000000E+00  0.39774250430E+03  0.17399529970E+04  0.16938823253E+04 0.  0.
        5    1    3    3  502    0 -0.70478900207E+03 -0.29373404962E+03  0.57528022563E+03  0.95602126406E+03  0.46999998093E+01 0. -1.
       -5    1    3    3    0  502  0.70478900207E+03  0.29373404962E+03 -0.17753772132E+03  0.78393173289E+03  0.46999998093E+01 0.  1.
</event>
<event>
 5   0  0.1285639E-04  0.1697984E+04  0.7818609E-02  0.8762515E-01
       -2   -1    0    0    0  501  0.00000000000E+00  0.00000000000E+00  0.77807477207E+03  0.77807477207E+03  0.25500000920E-02 0.  1.
        2   -1    0    0  501    0  0.00000000000E+00  0.00000000000E+00 -0.92637265245E+03  0.92637265245E+03  0.25500000920E-02 0. -1.
    10030    2    1    2    0    0  0.00000000000E+00  0.00000000000E+00 -0.14829788038E+03  0.17044474245E+04  0.16979837342E+04 0.  0.
        4    1    3    3  502    0 -0.24593086072E+03  0.24586639671E+03  0.70330131709E+03  0.78458054322E+03  0.12699999809E+01 0.  1.
       -4    1    3    3    0  502  0.24593086072E+03 -0.24586639671E+03 -0.85159919747E+03  0.91986688130E+03  0.12699999809E+01 0. -1.
</event>
<event>
 5   0  0.6601906E-05  0.1703219E+04  0.7818609E-02  0.8759530E-01
       -1   -1    0    0    0  501  0.00000000000E+00  0.00000000000E+00  0.43079340024E+03  0.43079340027E+03  0.50400001928E-02 0.  1.
        1   -1    0    0  501    0  0.00000000000E+00  0.00000000000E+00 -0.16834964037E+04  0.16834964037E+04  0.50400001928E-02 0. -1.
    10030    2    1    2    0    0  0.00000000000E+00  0.00000000000E+00 -0.12527030035E+04  0.21142898040E+04  0.17032194692E+04 0.  0.
        1    1    3    3  502    0 -0.32603892708E+03 -0.75661881142E+03 -0.89393559668E+03  0.12156867437E+04  0.50400001928E-02 0. -1.
       -1    1    3    3    0  502  0.32603892708E+03  0.75661881142E+03 -0.35876740680E+03  0.89860306029E+03  0.50400001928E-02 0.  1.
</event>
<event>
 5   0  0.1255362E-04  0.1697947E+04  0.7818609E-02  0.8762536E-01
        2   -1    0    0  501    0  0.00000000000E+00  0.00000000000E+00  0.12043938070E+04  0.12043938070E+04  0.25500000920E-02 0.  1.
       -2   -1    0    0    0  501  0.00000000000E+00  0.00000000000E+00 -0.59843885738E+03  0.59843885739E+03  0.25500000920E-02 0. -1.
    10030    2    1    2    0    0  0.00000000000E+00  0.00000000000E+00  0.60595494958E+03  0.18028326643E+04  0.16979470589E+04 0.  0.
        1    1    3    3  502    0 -0.26299962219E+03 -0.22616892768E+03 -0.51976558117E+03  0.62488194446E+03  0.50400001928E-02 0. -1.
       -1    1    3    3    0  502  0.26299962219E+03  0.22616892768E+03  0.11257205307E+04  0.11779507199E+04  0.50400001928E-02 0.  1.
</event>
<event>
 5   0  0.6615842E-05  0.1701983E+04  0.7818609E-02  0.8760234E-01
        1   -1    0    0  501    0  0.00000000000E+00  0.00000000000E+00  0.63142924664E+03  0.63142924666E+03  0.50400001928E-02 0.  1.
       -1   -1    0    0    0  501  0.00000000000E+00  0.00000000000E+00 -0.11469008937E+04  0.11469008937E+04  0.50400001928E-02 0. -1.
    10030    2    1    2    0    0  0.00000000000E+00  0.00000000000E+00 -0.51547164702E+03  0.17783301403E+04  0.17019832752E+04 0.  0.
        3    1    3    3  502    0  0.15397475697E+03  0.37592404303E+03 -0.10390487534E+04  0.11156385768E+04  0.10100000352E+00 0. -1.
       -3    1    3    3    0  502 -0.15397475697E+03 -0.37592404303E+03  0.52357710635E+03  0.66269156356E+03  0.10100000352E+00 0.  1.
</event>
<event>
 5   0  0.1269175E-04  0.1693417E+04  0.7818609E-02  0.8765128E-01
       -2   -1    0    0    0  501  0.00000000000E+00  0.00000000000E+00  0.10707715018E+04  0.10707715018E+04  0.25500000920E-02 0. -1.
        2   -1    0    0  501    0  0.00000000000E+00  0.00000000000E+00 -0.66953148499E+03  0.66953148499E+03  0.25500000920E-02 0.  1.
    10030    2    1    2    0    0  0.00000000000E+00  0.00000000000E+00  0.40124001684E+03  0.17403029868E+04  0.16934169406E+04 0.  0.
        2    1    3    3  502    0 -0.74111046657E+03  0.32554529400E+03  0.45587313275E+03  0.92900203190E+03  0.25500000920E-02 0. -1.
       -2    1    3    3    0  502  0.74111046657E+03 -0.32554529400E+03 -0.54633115906E+02  0.81130095493E+03  0.25500000920E-02 0.  1.
</event>
<event>
 5   0  0.6601906E-05  0.1696302E+04  0.7818609E-02  0.8763477E-01
       -1   -1    0    0    0  501  0.00000000000E+00  0.00000000000E+00  0.34545010698E+03  0.34545010701E+03  0.50400001928E-02 0. -1.
        1   -1    0    0  501    0  0.00000000000E+00  0.00000000000E+00 -0.20823838993E+04  0.20823838993E+04  0.50400001928E-02 0.  1.
    10030    2    1    2    0    0  0.00000000000E+00  0.00000000000E+00 -0.17369337923E+04  0.24278340063E+04  0.16963015543E+04 0.  0.
        1    1    3    3  502    0  0.33518374016E+03  0.27820495749E+03 -0.19100537640E+04  0.19590945662E+04  0.50400001928E-02 0.  1.
       -1    1    3    3    0  502 -0.33518374016E+03 -0.27820495749E+03  0.17311997170E+03  0.46873944006E+03  0.50400001928E-02 0. -1.
</event>
<event>
 5   0  0.6615842E-05  0.1689571E+04  0.7818609E-02  0.8767335E-01
       -1   -1    0    0    0  501  0.00000000000E+00  0.00000000000E+00  0.77750599455E+03  0.77750599456E+03  0.50400001928E-02 0. -1.
        1   -1    0    0  501    0  0.00000000000E+00  0.00000000000E+00 -0.91788708800E+03  0.91788708802E+03  0.50400001928E-02 0.  1.
    10030    2    1    2    0    0  0.00000000000E+00  0.00000000000E+00 -0.14038109346E+03  0.16953930826E+04  0.16895712039E+04 0.  0.
        3    1    3    3  502    0  0.16051878312E+03 -0.76340072007E+03  0.25514223998E+03  0.82075849795E+03  0.10100000352E+00 0. -1.
       -3    1    3    3    0  502 -0.16051878312E+03  0.76340072007E+03 -0.39552333344E+03  0.87463458463E+03  0.10100000352E+00 0.  1.
</event>
<event>
 5   0  0.6601906E-05  0.1703932E+04  0.7818609E-02  0.8759125E-01
        1   -1    0    0  501    0  0.00000000000E+00  0.00000000000E+00  0.23650645702E+04  0.23650645702E+04  0.50400001928E-02 0.  1.
       -1   -1    0    0    0  501  0.00000000000E+00  0.00000000000E+00 -0.30690333282E+03  0.30690333286E+03  0.50400001928E-02 0. -1.
    10030    2    1    2    0    0  0.00000000000E+00  0.00000000000E+00  0.20581612374E+04  0.26719679031E+04  0.17039321571E+04 0.  0.
        1    1    3    3  502    0  0.61204087780E+03  0.57821878934E+03  0.12330276725E+04  0.14930801203E+04  0.50400001928E-02 0.  1.
       -1    1    3    3    0  502 -0.61204087780E+03 -0.57821878934E+03  0.82513356488E+03  0.11788877828E+04  0.50400001928E-02 0. -1.
</event>
<event>
 5   0  0.1333546E-04  0.1696750E+04  0.7818609E-02  0.8763220E-01
        2   -1    0    0  501    0  0.00000000000E+00  0.00000000000E+00  0.86209690603E+03  0.86209690603E+03  0.25500000920E-02 0.  1.
       -2   -1    0    0    0  501  0.00000000000E+00  0.00000000000E+00 -0.83487190657E+03  0.83487190657E+03  0.25500000920E-02 0. -1.
    10030    2    1    2    0    0  0.00000000000E+00  0.00000000000E+00  0.27224999465E+02  0.16969688126E+04  0.16967504090E+04 0.  0.
        5    1    3    3  502    0  0.77607768270E+03 -0.30557002789E+03  0.16870917126E+03  0.85097267053E+03  0.46999998093E+01 0. -1.
       -5    1    3    3    0  502 -0.77607768270E+03  0.30557002789E+03 -0.14148417180E+03  0.84599614207E+03  0.46999998093E+01 0.  1.
</event>
<event>
 5   0  0.1393870E-04  0.1707481E+04  0.7818609E-02  0.8757109E-01
       -2   -1    0    0    0  501  0.00000000000E+00  0.00000000000E+00  0.11081620828E+04  0.11081620828E+04  0.25500000920E-02 0.  1.
        2   -1    0    0  501    0  0.00000000000E+00  0.00000000000E+00 -0.65773099106E+03  0.65773099107E+03  0.25500000920E-02 0. -1.
    10030    2    1    2    0    0  0.00000000000E+00  0.00000000000E+00  0.45043109172E+03  0.17658930739E+04  0.17074806529E+04 0.  0.
        3    1    3    3  502    0 -0.57940948503E+03 -0.60298836632E+03  0.40303410482E+03  0.92830319460E+03  0.10100000352E+00 0.  1.
       -3    1    3    3    0  502  0.57940948503E+03  0.60298836632E+03  0.47396986893E+02  0.83758987925E+03  0.10100000352E+00 0. -1.
</event>
<event>
 5   0  0.1255362E-04  0.1696845E+04  0.7818609E-02  0.8763166E-01
       -2   -1    0    0    0  501  0.00000000000E+00  0.00000000000E+00  0.12392926992E+04  0.12392926992E+04  0.25500000920E-02 0. -1.
        2   -1    0    0  501    0  0.00000000000E+00  0.00000000000E+00 -0.58083177375E+03  0.58083177375E+03  0.25500000920E-02 0.  1.
    10030    2    1    2    0    0  0.00000000000E+00  0.00000000000E+00  0.65846092542E+03  0.18201244729E+04  0.16968448092E+04 0.  0.
        1    1    3    3  502    0  0.44403058245E+03 -0.35671641170E+03  0.10037324592E+04  0.11540747836E+04  0.50400001928E-02 0. -1.
       -1    1    3    3    0  502 -0.44403058245E+03  0.35671641170E+03 -0.34527153379E+03  0.66604968929E+03  0.50400001928E-02 0.  1.
</event>
<event>
 5   0  0.6539134E-05  0.1717697E+04  0.7818609E-02  0.8751335E-01
       -1   -1    0    0    0  501  0.00000000000E+00  0.00000000000E+00  0.60110078762E+03  0.60110078764E+03  0.50400001928E-02 0.  1.
        1   -1    0    0  501    0  0.00000000000E+00  0.00000000000E+00 -0.12271165763E+04  0.12271165763E+04  0.50400001928E-02 0. -1.
    10030    2    1    2    0    0  0.00000000000E+00  0.00000000000E+00 -0.62601578866E+03  0.18282173639E+04  0.17176969937E+04 0.  0.
        2    1    3    3  502    0 -0.32757767183E+02 -0.56121982343E+03 -0.10040766573E+04  0.11507435402E+04  0.25500000920E-02 0. -1.
       -2    1    3    3    0  502  0.32757767183E+02  0.56121982343E+03  0.37806086861E+03  0.67747382377E+03  0.25500000920E-02 0.  1.
</event>
<event>
 5   0  0.6601906E-05  0.1668603E+04  0.7818609E-02  0.8779476E-01
        1   -1    0    0  501    0  0.00000000000E+00  0.00000000000E+00  0.18196510618E+04  0.18196510618E+04  0.50400001928E-02 0. -1.
       -1   -1    0    0    0  501  0.00000000000E+00  0.00000000000E+00 -0.38252343700E+03  0.38252343703E+03  0.50400001928E-02 0.  1.
    10030    2    1    2    0    0  0.00000000000E+00  0.00000000000E+00  0.14371276248E+04  0.22021744988E+04  0.16686032223E+04 0.  0.
        1    1    3    3  502    0  0.25921364059E+02  0.74661735818E+03  0.22837978015E+03  0.78119569933E+03  0.50400001928E-02 0.  1.
       -1    1    3    3    0  502 -0.25921364059E+02 -0.74661735818E+03  0.12087478446E+04  0.14209787995E+04  0.50400001928E-02 0. -1.
</event>
<event>
 5   0  0.1333546E-04  0.1706206E+04  0.7818609E-02  0.8757833E-01
       -2   -1    0    0    0  501  0.00000000000E+00  0.00000000000E+00  0.42948697518E+03  0.42948697519E+03  0.25500000920E-02 0.  1.
        2   -1    0    0  501    0  0.00000000000E+00  0.00000000000E+00 -0.16945440959E+04  0.16945440959E+04  0.25500000920E-02 0. -1.
    10030    2    1    2    0    0  0.00000000000E+00  0.00000000000E+00 -0.12650571207E+04  0.21240310711E+04  0.17062058704E+04 0.  0.
        5    1    3    3  502    0 -0.26610847045E+03 -0.76869232734E+03 -0.31256410980E+03  0.87144708668E+03  0.46999998093E+01 0. -1.
       -5    1    3    3    0  502  0.26610847045E+03  0.76869232734E+03 -0.95249301092E+03  0.12525839844E+04  0.46999998093E+01 0.  1.
</event>
<event>
 5   0  0.6834837E-05  0.1703914E+04  0.7818609E-02  0.8759135E-01
       -1   -1    0    0    0  501  0.00000000000E+00  0.00000000000E+00  0.99405566605E+03  0.99405566606E+03  0.50400001928E-02 0. -1.
        1   -1    0    0  501    0  0.00000000000E+00  0.00000000000E+00 -0.73017121016E+03  0.73017121018E+03  0.50400001928E-02 0.  1.
    10030    2    1    2    0    0  0.00000000000E+00  0.00000000000E+00  0.26388445589E+03  0.17242268762E+04  0.17039141160E+04 0.  0.
        5    1    3    3  502    0 -0.57926223912E+03  0.62293326754E+03  0.17960083053E+03  0.86940735320E+03  0.46999998093E+01 0.  1.
       -5    1    3    3    0  502  0.57926223912E+03 -0.62293326754E+03  0.84283625358E+02  0.85481952304E+03  0.46999998093E+01 0. -1.
</event>
<event>
 5   0  0.6564887E-05  0.1727092E+04  0.7818609E-02  0.8746062E-01
       -1   -1    0    0    0  501  0.00000000000E+00  0.00000000000E+00  0.10787337526E+04  0.10787337526E+04  0.50400001928E-02 0.  1.
        1   -1    0    0  501    0  0.00000000000E+00  0.00000000000E+00 -0.69128411636E+03  0.69128411637E+03  0.50400001928E-02 0. -1.
    10030    2    1    2    0    0  0.00000000000E+00  0.00000000000E+00  0.38744963625E+03  0.17700178690E+04  0.17270917856E+04 0.  0.
        4    1    3    3  502    0 -0.39626790707E+03 -0.20209560114E+03 -0.56483303537E+03  0.71896373825E+03  0.12699999809E+01 0. -1.
       -4    1    3    3    0  502  0.39626790707E+03  0.20209560114E+03  0.95228267162E+03  0.10510541307E+04  0.12699999809E+01 0.  1.
</event>
<event>
 5   0  0.1333546E-04  0.1732603E+04  0.7818609E-02  0.8742985E-01
       -2   -1    0    0    0  501  0.00000000000E+00  0.00000000000E+00  0.53574815686E+03  0.53574815687E+03  0.25500000920E-02 0.  1.
        2   -1    0    0  501    0  0.00000000000E+00  0.00000000000E+00 -0.14008044856E+04  0.14008044856E+04  0.25500000920E-02 0. -1.
    10030    2    1    2    0    0  0.00000000000E+00  0.00000000000E+00 -0.86505632875E+03  0.19365526425E+04  0.17326031528E+04 0.  0.
        5    1    3    3  502    0  0.71419920671E+03  0.24470173830E+03  0.42331259118E+02  0.75615704261E+03  0.46999998093E+01 0. -1.
       -5    1    3    3    0  502 -0.71419920671E+03 -0.24470173830E+03 -0.90738758787E+03  0.11803955999E+04  0.46999998093E+01 0.  1.
</event>
<event>
 5   0  0.4720875E-05  0.1702133E+04  0.7818609E-02  0.8760149E-01
        3   -1    0    0  501    0  0.00000000000E+00  0.00000000000E+00  0.67807405800E+03  0.67807406553E+03  0.10100000352E+00 0.  1.
       -3   -1    0    0    0  501  0.00000000000E+00  0.00000000000E+00 -0.10681932703E+04  0.10681932751E+04  0.10100000352E+00 0. -1.
    10030    2    1    2    0    0  0.00000000000E+00  0.00000000000E+00 -0.39011921228E+03  0.17462673406E+04  0.17021329634E+04 0.  0.
        4    1    3    3  502    0  0.25979248532E+03  0.24489806287E+03  0.59752960354E+03  0.69606783910E+03  0.12699999809E+01 0.  1.
       -4    1    3    3    0  502 -0.25979248532E+03 -0.24489806287E+03 -0.98764881582E+03  0.10501995015E+04  0.12699999809E+01 0. -1.
</event>
<event>
 5   0  0.1333546E-04  0.1699600E+04  0.7818609E-02  0.8761593E-01
        2   -1    0    0  501    0  0.00000000000E+00  0.00000000000E+00  0.89336189654E+03  0.89336189654E+03  0.25500000920E-02 0.  1.
       -2   -1    0    0    0  501  0.00000000000E+00  0.00000000000E+00 -0.80836190168E+03  0.80836190169E+03  0.25500000920E-02 0. -1.
    10030    2    1    2    0    0  0.00000000000E+00  0.00000000000E+00  0.84999994851E+02  0.17017237982E+04  0.16995996253E+04 0.  0.
        5    1    3    3  502    0  0.71384621183E+03 -0.42307401804E+03 -0.14094905877E+03  0.84169873830E+03  0.46999998093E+01 0. -1.
       -5    1    3    3    0  502 -0.71384621183E+03  0.42307401804E+03  0.22594905362E+03  0.86002505993E+03  0.46999998093E+01 0.  1.
</event>
<event>
 5   0  0.1285639E-04  0.1709098E+04  0.7818609E-02  0.8756193E-01
        2   -1    0    0  501    0  0.00000000000E+00  0.00000000000E+00  0.26297487183E+04  0.26297487183E+04  0.25500000920E-02 0.  1.
       -2   -1    0    0    0  501  0.00000000000E+00  0.00000000000E+00 -0.27768957732E+03  0.27768957734E+03  0.25500000920E-02 0. -1.
    10030    2    1    2    0    0  0.00000000000E+00  0.00000000000E+00  0.23520591409E+04  0.29074382956E+04  0.17090977855E+04 0.  0.
        4    1    3    3  502    0 -0.72496248061E+03 -0.39206694975E+03  0.79198638792E+03  0.11430359325E+04  0.12699999809E+01 0. -1.
       -4    1    3    3    0  502  0.72496248061E+03  0.39206694975E+03  0.15600727530E+04  0.17644023631E+04  0.12699999809E+01 0.  1.
</event>
<event>
 5   0  0.1255362E-04  0.1702017E+04  0.7818609E-02  0.8760215E-01
        2   -1    0    0  501    0  0.00000000000E+00  0.00000000000E+00  0.10829487647E+04  0.10829487647E+04  0.25500000920E-02 0.  1.
       -2   -1    0    0    0  501  0.00000000000E+00  0.00000000000E+00 -0.66874431367E+03  0.66874431368E+03  0.25500000920E-02 0. -1.
    10030    2    1    2    0    0  0.00000000000E+00  0.00000000000E+00  0.41420445107E+03  0.17516930784E+04  0.17020174246E+04 0.  0.
        1    1    3    3  502    0 -0.55383610623E+03 -0.58614114941E+03 -0.72715254242E+02  0.80968104079E+03  0.50400001928E-02 0. -1.
       -1    1    3    3    0  502  0.55383610623E+03  0.58614114941E+03  0.48691970532E+03  0.94201203763E+03  0.50400001928E-02 0.  1.
</event>
<event>
 5   0  0.1255362E-04  0.1705365E+04  0.7818609E-02  0.8758310E-01
        2   -1    0    0  501    0  0.00000000000E+00  0.00000000000E+00  0.79122297773E+03  0.79122297774E+03  0.25500000920E-02 0.  1.
       -2   -1    0    0    0  501  0.00000000000E+00  0.00000000000E+00 -0.91891603447E+03  0.91891603447E+03  0.25500000920E-02 0. -1.
    10030    2    1    2    0    0  0.00000000000E+00  0.00000000000E+00 -0.12769305673E+03  0.17101390122E+04  0.17053650414E+04 0.  0.
        1    1    3    3  502    0 -0.69552649654E+03 -0.47678150829E+03  0.62958106013E+02  0.84560122823E+03  0.50400001928E-02 0. -1.
       -1    1    3    3    0  502  0.69552649654E+03  0.47678150829E+03 -0.19065116275E+03  0.86453778398E+03  0.50400001928E-02 0.  1.
</event>
<event>
 5   0  0.6539134E-05  0.1695896E+04  0.7818609E-02  0.8763709E-01
       -1   -1    0    0    0  501  0.00000000000E+00  0.00000000000E+00  0.93416460137E+03  0.93416460139E+03  0.50400001928E-02 0. -1.
        1   -1    0    0  501    0  0.00000000000E+00  0.00000000000E+00 -0.76968831136E+03  0.76968831137E+03  0.50400001928E-02 0.  1.
    10030    2    1    2    0    0  0.00000000000E+00  0.00000000000E+00  0.16447629001E+03  0.17038529128E+04  0.16958957215E+04 0.  0.
        2    1    3    3  502    0  0.12903719810E+03 -0.57690939394E+02 -0.75776895118E+03  0.77083891078E+03  0.25500000920E-02 0.  1.
       -2    1    3    3    0  502 -0.12903719810E+03  0.57690939394E+02  0.92224524120E+03  0.93301400198E+03  0.25500000920E-02 0. -1.
</event>
<event>
 5   0  0.1255362E-04  0.1697822E+04  0.7818609E-02  0.8762607E-01
       -2   -1    0    0    0  501  0.00000000000E+00  0.00000000000E+00  0.39644016394E+03  0.39644016394E+03  0.25500000920E-02 0.  1.
        2   -1    0    0  501    0  0.00000000000E+00  0.00000000000E+00 -0.18178029159E+04  0.18178029159E+04  0.25500000920E-02 0. -1.
    10030    2    1    2    0    0  0.00000000000E+00  0.00000000000E+00 -0.14213627519E+04  0.22142430798E+04  0.16978222357E+04 0.  0.
        1    1    3    3  502    0 -0.59730802729E+03  0.16702813121E+03 -0.14666198287E+04  0.15923721293E+04  0.50400001928E-02 0. -1.
       -1    1    3    3    0  502  0.59730802729E+03 -0.16702813121E+03  0.45257076803E+02  0.62187095052E+03  0.50400001928E-02 0.  1.
</event>
<event>
 5   0  0.6834837E-05  0.1699091E+04  0.7818609E-02  0.8761883E-01
        1   -1    0    0  501    0  0.00000000000E+00  0.00000000000E+00  0.11321745178E+04  0.11321745178E+04  0.50400001928E-02 0.  1.
       -1   -1    0    0    0  501  0.00000000000E+00  0.00000000000E+00 -0.63747053884E+03  0.63747053886E+03  0.50400001928E-02 0. -1.
    10030    2    1    2    0    0  0.00000000000E+00  0.00000000000E+00  0.49470397895E+03  0.17696450567E+04  0.16990914042E+04 0.  0.
        5    1    3    3  502    0 -0.37161911006E+03  0.79684115070E+02  0.10386743905E+04  0.11060365729E+04  0.46999998093E+01 0.  1.
       -5    1    3    3    0  502  0.37161911006E+03 -0.79684115070E+02 -0.54397041151E+03  0.66360848378E+03  0.46999998093E+01 0. -1.
</event>
<event>
 5   0  0.6615842E-05  0.1783353E+04  0.7818609E-02  0.8715203E-01
        1   -1    0    0  501    0  0.00000000000E+00  0.00000000000E+00  0.25125673185E+04  0.25125673185E+04  0.50400001928E-02 0. -1.
       -1   -1    0    0    0  501  0.00000000000E+00  0.00000000000E+00 -0.31644395138E+03  0.31644395142E+03  0.50400001928E-02 0.  1.
    10030    2    1    2    0    0  0.00000000000E+00  0.00000000000E+00  0.21961233671E+04  0.28290112699E+04  0.17833527194E+04 0.  0.
        3    1    3    3  502    0 -0.52779323510E+03  0.48857830467E+03  0.19341903899E+04  0.20635810944E+04  0.10100000352E+00 0. -1.
       -3    1    3    3    0  502  0.52779323510E+03 -0.48857830467E+03  0.26193297725E+03  0.76543017551E+03  0.10100000352E+00 0.  1.
</event>
<event>
 5   0  0.1285639E-04  0.1672867E+04  0.7818609E-02  0.8776992E-01
       -2   -1    0    0    0  501  0.00000000000E+00  0.00000000000E+00  0.58941084173E+03  0.58941084174E+03  0.25500000920E-02 0.  1.
        2   -1    0    0  501    0  0.00000000000E+00  0.00000000000E+00 -0.11869841991E+04  0.11869841991E+04  0.25500000920E-02 0. -1.
    10030    2    1    2    0    0  0.00000000000E+00  0.00000000000E+00 -0.59757335733E+03  0.17763950408E+04  0.16728674256E+04 0.  0.
        4    1    3    3  502    0 -0.70818146283E+03 -0.38680954965E+03 -0.64985615253E+02  0.80954762373E+03  0.12699999809E+01 0.  1.
       -4    1    3    3    0  502  0.70818146283E+03  0.38680954965E+03 -0.53258774208E+03  0.96684741708E+03  0.12699999809E+01 0. -1.
</event>
<event>
 5   0  0.6601906E-05  0.1702280E+04  0.7818609E-02  0.8760065E-01
        1   -1    0    0  501    0  0.00000000000E+00  0.00000000000E+00  0.14661836239E+04  0.14661836239E+04  0.50400001928E-02 0. -1.
       -1   -1    0    0    0  501  0.00000000000E+00  0.00000000000E+00 -0.49409867555E+03  0.49409867558E+03  0.50400001928E-02 0.  1.
    10030    2    1    2    0    0  0.00000000000E+00  0.00000000000E+00  0.97208494835E+03  0.19602822995E+04  0.17022801024E+04 0.  0.
        1    1    3    3  502    0  0.14447239139E+03  0.39597923057E+03 -0.36546598554E+03  0.55788637690E+03  0.50400001928E-02 0.  1.
       -1    1    3    3    0  502 -0.14447239139E+03 -0.39597923057E+03  0.13375509339E+04  0.14023959226E+04  0.50400001928E-02 0. -1.
</event>
<event>
 5   0  0.1393870E-04  0.1684437E+04  0.7818609E-02  0.8770291E-01
       -2   -1    0    0    0  501  0.00000000000E+00  0.00000000000E+00  0.41031600518E+03  0.41031600518E+03  0.25500000920E-02 0. -1.
        2   -1    0    0  501    0  0.00000000000E+00  0.00000000000E+00 -0.17287454865E+04  0.17287454865E+04  0.25500000920E-02 0.  1.
    10030    2    1    2    0    0  0.00000000000E+00  0.00000000000E+00 -0.13184294813E+04  0.21390614917E+04  0.16844369291E+04 0.  0.
        3    1    3    3  502    0  0.36068262497E+03  0.38028118997E+03  0.17797994494E+03  0.55351839211E+03  0.10100000352E+00 0. -1.
       -3    1    3    3    0  502 -0.36068262497E+03 -0.38028118997E+03 -0.14964094263E+04  0.15855430996E+04  0.10100000352E+00 0.  1.
</event>
<event>
 5   0  0.1393870E-04  0.1713914E+04  0.7818609E-02  0.8753468E-01
        2   -1    0    0  501    0  0.00000000000E+00  0.00000000000E+00  0.28078239353E+04  0.28078239353E+04  0.25500000920E-02 0. -1.
       -2   -1    0    0    0  501  0.00000000000E+00  0.00000000000E+00 -0.26154612083E+03  0.26154612084E+03  0.25500000920E-02 0.  1.
    10030    2    1    2    0    0  0.00000000000E+00  0.00000000000E+00  0.25462778145E+04  0.30693700562E+04  0.17139141849E+04 0.  0.
        3    1    3    3  502    0  0.55072228101E+03  0.62166424051E+03  0.89487429961E+03  0.12208855315E+04  0.10100000352E+00 0.  1.
       -3    1    3    3    0  502 -0.55072228101E+03 -0.62166424051E+03  0.16514035149E+04  0.18484845247E+04  0.10100000352E+00 0. -1.
</event>
<event>
 5   0  0.1393870E-04  0.1698687E+04  0.7818609E-02  0.8762114E-01
       -2   -1    0    0    0  501  0.00000000000E+00  0.00000000000E+00  0.56149818364E+03  0.56149818365E+03  0.25500000920E-02 0. -1.
        2   -1    0    0  501    0  0.00000000000E+00  0.00000000000E+00 -0.12847489255E+04  0.12847489255E+04  0.25500000920E-02 0.  1.
    10030    2    1    2    0    0  0.00000000000E+00  0.00000000000E+00 -0.72325074190E+03  0.18462471092E+04  0.16986867729E+04 0.  0.
        3    1    3    3  502    0 -0.70409441084E+03  0.44539918840E+03 -0.18219414059E+03  0.85283297982E+03  0.10100000352E+00 0. -1.
       -3    1    3    3    0  502  0.70409441084E+03 -0.44539918840E+03 -0.54105660131E+03  0.99341412937E+03  0.10100000352E+00 0.  1.
</event>
<event>
 5   0  0.6539134E-05  0.1698813E+04  0.7818609E-02  0.8762042E-01
       -1   -1    0    0    0  501  0.00000000000E+00  0.00000000000E+00  0.53154168408E+03  0.53154168411E+03  0.50400001928E-02 0. -1.
        1   -1    0    0  501    0  0.00000000000E+00  0.00000000000E+00 -0.13573554905E+04  0.13573554905E+04  0.50400001928E-02 0.  1.
    10030    2    1    2    0    0  0.00000000000E+00  0.00000000000E+00 -0.82581380646E+03  0.18888971747E+04  0.16988125540E+04 0.  0.
        2    1    3    3  502    0 -0.33237479249E+03 -0.75494575917E+03 -0.63825361526E+03  0.10429687336E+04  0.25500000920E-02 0.  1.
       -2    1    3    3    0  502  0.33237479249E+03  0.75494575917E+03 -0.18756019120E+03  0.84592844101E+03  0.25500000920E-02 0. -1.
</event>
<event>
 5   0  0.1333546E-04  0.1682125E+04  0.7818609E-02  0.8771626E-01
        2   -1    0    0  501    0  0.00000000000E+00  0.00000000000E+00  0.92433524475E+03  0.92433524475E+03  0.25500000920E-02 0.  1.
       -2   -1    0    0    0  501  0.00000000000E+00  0.00000000000E+00 -0.76529134183E+03  0.76529134183E+03  0.25500000920E-02 0. -1.
    10030    2    1    2    0    0  0.00000000000E+00  0.00000000000E+00  0.15904390292E+03  0.16896265866E+04  0.16821245611E+04 0.  0.
        5    1    3    3  502    0 -0.34353862089E+02 -0.37680240502E+03  0.83400666204E+03  0.91583264989E+03  0.46999998093E+01 0.  1.
       -5    1    3    3    0  502  0.34353862089E+02  0.37680240502E+03 -0.67496275913E+03  0.77379393670E+03  0.46999998093E+01 0. -1.
</event>
<event>
 5   0  0.1333546E-04  0.1702744E+04  0.7818609E-02  0.8759801E-01
       -2   -1    0    0    0  501  0.00000000000E+00  0.00000000000E+00  0.97761761962E+03  0.97761761962E+03  0.25500000920E-02 0. -1.
        2   -1    0    0  501    0  0.00000000000E+00  0.00000000000E+00 -0.74142928951E+03  0.74142928951E+03  0.25500000920E-02 0.  1.
    10030    2    1    2    0    0  0.00000000000E+00  0.00000000000E+00  0.23618833012E+03  0.17190469091E+04  0.17027440643E+04 0.  0.
        5    1    3    3  502    0  0.35483979836E+03 -0.32534919649E+03  0.82699148503E+03  0.95692235237E+03  0.46999998093E+01 0. -1.
       -5    1    3    3    0  502 -0.35483979836E+03  0.32534919649E+03 -0.59080315492E+03  0.76212455676E+03  0.46999998093E+01 0.  1.
</event>
<event>
 5   0  0.1285639E-04  0.1684154E+04  0.7818609E-02  0.8770454E-01
        2   -1    0    0  501    0  0.00000000000E+00  0.00000000000E+00  0.15330259928E+04  0.15330259928E+04  0.25500000920E-02 0. -1.
       -2   -1    0    0    0  501  0.00000000000E+00  0.00000000000E+00 -0.46254512088E+03  0.46254512089E+03  0.25500000920E-02 0.  1.
    10030    2    1    2    0    0  0.00000000000E+00  0.00000000000E+00  0.10704808719E+04  0.19955711137E+04  0.16841540228E+04 0.  0.
        4    1    3    3  502    0 -0.19019322522E+03 -0.42249255833E+03  0.13684089061E+04  0.14447207245E+04  0.12699999809E+01 0. -1.
       -4    1    3    3    0  502  0.19019322522E+03  0.42249255833E+03 -0.29792803418E+03  0.55085038914E+03  0.12699999809E+01 0.  1.
</event>
<event>
 5   0  0.1285639E-04  0.1720666E+04  0.7818609E-02  0.8749665E-01
       -2   -1    0    0    0  501  0.00000000000E+00  0.00000000000E+00  0.53367614389E+03  0.53367614390E+03  0.25500000920E-02 0. -1.
        2   -1    0    0  501    0  0.00000000000E+00  0.00000000000E+00 -0.13869327589E+04  0.13869327589E+04  0.25500000920E-02 0.  1.
    10030    2    1    2    0    0  0.00000000000E+00  0.00000000000E+00 -0.85325661500E+03  0.19206089028E+04  0.17206660648E+04 0.  0.
        4    1    3    3  502    0  0.91677968530E+02  0.31779191398E+03 -0.13131298563E+04  0.13541448161E+04  0.12699999809E+01 0.  1.
       -4    1    3    3    0  502 -0.91677968530E+02 -0.31779191398E+03  0.45987324133E+03  0.56646408668E+03  0.12699999809E+01 0. -1.
</event>
<event>
 5   0  0.6539134E-05  0.1716101E+04  0.7818609E-02  0.8752234E-01
        1   -1    0    0  501    0  0.00000000000E+00  0.00000000000E+00  0.12787598596E+04  0.12787598596E+04  0.50400001928E-02 0. -1.
       -1   -1    0    0    0  501  0.00000000000E+00  0.00000000000E+00 -0.57575344570E+03  0.57575344573E+03  0.50400001928E-02 0.  1.
    10030    2    1    2    0    0  0.00000000000E+00  0.00000000000E+00  0.70300641389E+03  0.18545133053E+04  0.17161006910E+04 0.  0.
        2    1    3    3  502    0 -0.76098314463E+03  0.21404491585E+03 -0.90857735425E+01  0.79056506607E+03  0.25500000920E-02 0. -1.
       -2    1    3    3    0  502  0.76098314463E+03 -0.21404491585E+03  0.71209218744E+03  0.10639482393E+04  0.25500000920E-02 0.  1.
</event>
<event>
 5   0  0.1393870E-04  0.1697738E+04  0.7818609E-02  0.8762655E-01
        2   -1    0    0  501    0  0.00000000000E+00  0.00000000000E+00  0.89680306787E+03  0.89680306787E+03  0.25500000920E-02 0.  1.
       -2   -1    0    0    0  501  0.00000000000E+00  0.00000000000E+00 -0.80349714926E+03  0.80349714927E+03  0.25500000920E-02 0. -1.
    10030    2    1    2    0    0  0.00000000000E+00  0.00000000000E+00  0.93305918606E+02  0.17003002171E+04  0.16977381524E+04 0.  0.
        3    1    3    3  502    0 -0.33270831602E+02 -0.11462102807E+03  0.88835792064E+03  0.89633963076E+03  0.10100000352E+00 0.  1.
       -3    1    3    3    0  502  0.33270831602E+02  0.11462102807E+03 -0.79505200203E+03  0.80396058638E+03  0.10100000352E+00 0. -1.
</event>
<event>
 5   0  0.6564887E-05  0.1585222E+04  0.7818609E-02  0.8829678E-01
       -1   -1    0    0    0  501  0.00000000000E+00  0.00000000000E+00  0.11775774420E+04  0.11775774420E+04  0.50400001928E-02 0.  1.
        1   -1    0    0  501    0  0.00000000000E+00  0.00000000000E+00 -0.53349573402E+03  0.53349573404E+03  0.50400001928E-02 0. -1.
    10030    2    1    2    0    0  0.00000000000E+00  0.00000000000E+00  0.64408170800E+03  0.17110731761E+04  0.15852224346E+04 0.  0.
        4    1    3    3  502    0  0.17983547415E+02 -0.33322309357E+03 -0.45397213406E+03  0.56342998630E+03  0.12699999809E+01 0. -1.
       -4    1    3    3    0  502 -0.17983547415E+02  0.33322309357E+03  0.10980538421E+04  0.11476431898E+04  0.12699999809E+01 0.  1.
</event>
<event>
 5   0  0.1255362E-04  0.1708267E+04  0.7818609E-02  0.8756663E-01
        2   -1    0    0  501    0  0.00000000000E+00  0.00000000000E+00  0.94382868419E+03  0.94382868420E+03  0.25500000920E-02 0. -1.
       -2   -1    0    0    0  501  0.00000000000E+00  0.00000000000E+00 -0.77296255330E+03  0.77296255330E+03  0.25500000920E-02 0.  1.
    10030    2    1    2    0    0  0.00000000000E+00  0.00000000000E+00  0.17086613090E+03  0.17167912375E+04  0.17082672269E+04 0.  0.
        1    1    3    3  502    0 -0.63508772603E+02  0.44904079320E+03 -0.64196942361E+03  0.78599983399E+03  0.50400001928E-02 0.  1.
       -1    1    3    3    0  502  0.63508772603E+02 -0.44904079320E+03  0.81283555451E+03  0.93079140351E+03  0.50400001928E-02 0. -1.
</event>
<event>
 5   0  0.1269175E-04  0.1697906E+04  0.7818609E-02  0.8762559E-01
        2   -1    0    0  501    0  0.00000000000E+00  0.00000000000E+00  0.20390922893E+04  0.20390922893E+04  0.25500000920E-02 0.  1.
       -2   -1    0    0    0  501  0.00000000000E+00  0.00000000000E+00 -0.35345217835E+03  0.35345217836E+03  0.25500000920E-02 0. -1.
    10030    2    1    2    0    0  0.00000000000E+00  0.00000000000E+00  0.16856401110E+04  0.23925444677E+04  0.16979064892E+04 0.  0.
        2    1    3    3  502    0 -0.37530399560E+02 -0.20142966101E+03  0.20037277972E+04  0.20141766369E+04  0.25500000920E-02 0.  1.
       -2    1    3    3    0  502  0.37530399560E+02  0.20142966101E+03 -0.31808768625E+03  0.37836783079E+03  0.25500000920E-02 0. -1.
</event>
<event>
 5   0  0.6564887E-05  0.1700156E+04  0.7818609E-02  0.8761275E-01
       -1   -1    0    0    0  501  0.00000000000E+00  0.00000000000E+00  0.40406265832E+03  0.40406265835E+03  0.50400001928E-02 0.  1.
        1   -1    0    0  501    0  0.00000000000E+00  0.00000000000E+00 -0.17884177284E+04  0.17884177284E+04  0.50400001928E-02 0. -1.
    10030    2    1    2    0    0  0.00000000000E+00  0.00000000000E+00 -0.13843550701E+04  0.21924803868E+04  0.17001562535E+04 0.  0.
        4    1    3    3  502    0  0.59443115960E+03  0.25731800790E+03 -0.14021124442E+04  0.15445005276E+04  0.12699999809E+01 0. -1.
       -4    1    3    3    0  502 -0.59443115960E+03 -0.25731800790E+03  0.17757374073E+02  0.64797985920E+03  0.12699999809E+01 0.  1.
</event>
<event>
 5   0  0.6539134E-05  0.1702662E+04  0.7818609E-02  0.8759848E-01
       -1   -1    0    0    0  501  0.00000000000E+00  0.00000000000E+00  0.35809866307E+03  0.35809866311E+03  0.50400001928E-02 0. -1.
        1   -1    0    0  501    0  0.00000000000E+00  0.00000000000E+00 -0.20239229333E+04  0.20239229333E+04  0.50400001928E-02 0.  1.
    10030    2    1    2    0    0  0.00000000000E+00  0.00000000000E+00 -0.16658242703E+04  0.23820215964E+04  0.17026615596E+04 0.  0.
        2    1    3    3  502    0 -0.33502194147E+03  0.76229036269E+03 -0.58485973983E+03  0.10175397848E+04  0.25500000920E-02 0. -1.
       -2    1    3    3    0  502  0.33502194147E+03 -0.76229036269E+03 -0.10809645304E+04  0.13644818117E+04  0.25500000920E-02 0.  1.
</event>
<event>
 5   0  0.1285639E-04  0.1706301E+04  0.7818609E-02  0.8757779E-01
        2   -1    0    0  501    0  0.00000000000E+00  0.00000000000E+00  0.10361119693E+04  0.10361119693E+04  0.25500000920E-02 0.  1.
       -2   -1    0    0    0  501  0.00000000000E+00  0.00000000000E+00 -0.70249733467E+03  0.70249733468E+03  0.25500000920E-02 0. -1.
    10030    2    1    2    0    0  0.00000000000E+00  0.00000000000E+00  0.33361463464E+03  0.17386093040E+04  0.17063011421E+04 0.  0.
        4    1    3    3  502    0 -0.69486150230E+01 -0.56951231829E+03  0.81402871621E+03  0.99349732141E+03  0.12699999809E+01 0.  1.
       -4    1    3    3    0  502  0.69486150230E+01  0.56951231829E+03 -0.48041408157E+03  0.74511198259E+03  0.12699999809E+01 0. -1.
</event>
<event>
 5   0  0.1285639E-04  0.1681131E+04  0.7818609E-02  0.8772200E-01
        2   -1    0    0  501    0  0.00000000000E+00  0.00000000000E+00  0.95659550219E+03  0.95659550219E+03  0.25500000920E-02 0.  1.
       -2   -1    0    0    0  501  0.00000000000E+00  0.00000000000E+00 -0.73860958413E+03  0.73860958414E+03  0.25500000920E-02 0. -1.
    10030    2    1    2    0    0  0.00000000000E+00  0.00000000000E+00  0.21798591806E+03  0.16952050863E+04  0.16811312930E+04 0.  0.
        4    1    3    3  502    0  0.71907989589E+03 -0.42548519487E+03  0.20160652888E+03  0.85951169458E+03  0.12699999809E+01 0.  1.
       -4    1    3    3    0  502 -0.71907989589E+03  0.42548519487E+03  0.16379389171E+02  0.83569339175E+03  0.12699999809E+01 0. -1.
</event>
<event>
 5   0  0.6564887E-05  0.1674804E+04  0.7818609E-02  0.8775867E-01
        1   -1    0    0  501    0  0.00000000000E+00  0.00000000000E+00  0.15608679911E+04  0.15608679911E+04  0.50400001928E-02 0. -1.
       -1   -1    0    0    0  501  0.00000000000E+00  0.00000000000E+00 -0.44926405814E+03  0.44926405817E+03  0.50400001928E-02 0.  1.
    10030    2    1    2    0    0  0.00000000000E+00  0.00000000000E+00  0.11116039330E+04  0.20101320493E+04  0.16748037353E+04 0.  0.
        4    1    3    3  502    0 -0.27721902614E+02  0.76008010397E+03  0.13529670962E+03  0.77252642729E+03  0.12699999809E+01 0.  1.
       -4    1    3    3    0  502  0.27721902614E+02 -0.76008010397E+03  0.97630722334E+03  0.12376056220E+04  0.12699999809E+01 0. -1.
</event>
<event>
 5   0  0.6539134E-05  0.1698568E+04  0.7818609E-02  0.8762182E-01
        1   -1    0    0  501    0  0.00000000000E+00  0.00000000000E+00  0.21525470672E+04  0.21525470672E+04  0.50400001928E-02 0. -1.
       -1   -1    0    0    0  501  0.00000000000E+00  0.00000000000E+00 -0.33508344907E+03  0.33508344911E+03  0.50400001928E-02 0.  1.
    10030    2    1    2    0    0  0.00000000000E+00  0.00000000000E+00  0.18174636181E+04  0.24876305163E+04  0.16985675089E+04 0.  0.
        2    1    3    3  502    0 -0.49192736798E+03 -0.61909504625E+03  0.45493116622E+03  0.91226836932E+03  0.25500000920E-02 0.  1.
       -2    1    3    3    0  502  0.49192736798E+03  0.61909504625E+03  0.13625324519E+04  0.15753621470E+04  0.25500000920E-02 0. -1.
</event>
<event>
 5   0  0.1333546E-04  0.1701082E+04  0.7818609E-02  0.8760748E-01
       -2   -1    0    0    0  501  0.00000000000E+00  0.00000000000E+00  0.90807946490E+03  0.90807946490E+03  0.25500000920E-02 0. -1.
        2   -1    0    0  501    0  0.00000000000E+00  0.00000000000E+00 -0.79664829319E+03  0.79664829320E+03  0.25500000920E-02 0.  1.
    10030    2    1    2    0    0  0.00000000000E+00  0.00000000000E+00  0.11143117170E+03  0.17047277581E+04  0.17010819566E+04 0.  0.
        5    1    3    3  502    0 -0.21024655668E+03  0.71092277808E+03  0.47348198644E+03  0.87967158217E+03  0.46999998093E+01 0. -1.
       -5    1    3    3    0  502  0.21024655668E+03 -0.71092277808E+03 -0.36205081474E+03  0.82505617593E+03  0.46999998093E+01 0.  1.
</event>
<event>
 5   0  0.4720875E-05  0.1707307E+04  0.7818609E-02  0.8757208E-01
        4   -1    0    0  501    0  0.00000000000E+00  0.00000000000E+00  0.12018699896E+04  0.12018706606E+04  0.12699999809E+01 0. -1.
       -4   -1    0    0    0  501  0.00000000000E+00  0.00000000000E+00 -0.60632392121E+03  0.60632525128E+03  0.12699999809E+01 0.  1.
    10030    2    1    2    0    0  0.00000000000E+00  0.00000000000E+00  0.59554606843E+03  0.18081959119E+04  0.17073070422E+04 0.  0.
        4    1    3    3  502    0  0.35335132977E+03 -0.23270900000E+03 -0.48746529772E+03  0.64547243962E+03  0.12699999809E+01 0.  1.
       -4    1    3    3    0  502 -0.35335132977E+03  0.23270900000E+03  0.10830113662E+04  0.11627234723E+04  0.12699999809E+01 0. -1.
</event>
<event>
 5   0  0.6834837E-05  0.1696894E+04  0.7818609E-02  0.8763138E-01
       -1   -1    0    0    0  501  0.00000000000E+00  0.00000000000E+00  0.77211284961E+03  0.77211284963E+03  0.50400001928E-02 0. -1.
        1   -1    0    0  501    0  0.00000000000E+00  0.00000000000E+00 -0.93232834313E+03  0.93232834314E+03  0.50400001928E-02 0.  1.
    10030    2    1    2    0    0  0.00000000000E+00  0.00000000000E+00 -0.16021549352E+03  0.17044411928E+04  0.16968944502E+04 0.  0.
        5    1    3    3  502    0 -0.56071302294E+03 -0.10494457730E+03  0.55072051382E+03  0.79292347219E+03  0.46999998093E+01 0. -1.
       -5    1    3    3    0  502  0.56071302294E+03  0.10494457730E+03 -0.71093600734E+03  0.91151772058E+03  0.46999998093E+01 0.  1.
</event>
<event>
 5   0  0.1269175E-04  0.1703597E+04  0.7818609E-02  0.8759315E-01
       -2   -1    0    0    0  501  0.00000000000E+00  0.00000000000E+00  0.13897292603E+04  0.13897292603E+04  0.25500000920E-02 0. -1.
        2   -1    0    0  501    0  0.00000000000E+00  0.00000000000E+00 -0.52208804950E+03  0.52208804950E+03  0.25500000920E-02 0.  1.
    10030    2    1    2    0    0  0.00000000000E+00  0.00000000000E+00  0.86764121078E+03  0.19118173098E+04  0.17035974159E+04 0.  0.
        2    1    3    3  502    0 -0.34564667001E+02 -0.10851203110E+03 -0.51350597700E+03  0.52598285668E+03  0.25500000920E-02 0.  1.
       -2    1    3    3    0  502  0.34564667001E+02  0.10851203110E+03  0.13811471878E+04  0.13858344531E+04  0.25500000920E-02 0. -1.
</event>
<event>
 5   0  0.6564887E-05  0.1684275E+04  0.7818609E-02  0.8770384E-01
       -1   -1    0    0    0  501  0.00000000000E+00  0.00000000000E+00  0.37082899649E+03  0.37082899653E+03  0.50400001928E-02 0. -1.
        1   -1    0    0  501    0  0.00000000000E+00  0.00000000000E+00 -0.19124608616E+04  0.19124608616E+04  0.50400001928E-02 0.  1.
    10030    2    1    2    0    0  0.00000000000E+00  0.00000000000E+00 -0.15416318651E+04  0.22832898581E+04  0.16842754433E+04 0.  0.
        4    1    3    3  502    0  0.17081559743E+03 -0.81481687117E+03 -0.94277442290E+03  0.12577478790E+04  0.12699999809E+01 0. -1.
       -4    1    3    3    0  502 -0.17081559743E+03  0.81481687117E+03 -0.59885744220E+03  0.10255419791E+04  0.12699999809E+01 0.  1.
</event>
<event>
 5   0  0.1393870E-04  0.1733508E+04  0.7818609E-02  0.8742481E-01
        2   -1    0    0  501    0  0.00000000000E+00  0.00000000000E+00  0.23123349844E+04  0.23123349844E+04  0.25500000920E-02 0. -1.
       -2   -1    0    0    0  501  0.00000000000E+00  0.00000000000E+00 -0.32489347035E+03  0.32489347036E+03  0.25500000920E-02 0.  1.
    10030    2    1    2    0    0  0.00000000000E+00  0.00000000000E+00  0.19874415141E+04  0.26372284548E+04  0.17335080475E+04 0.  0.
        3    1    3    3  502    0 -0.74340844242E+03  0.43198719974E+03  0.11603282001E+04  0.14441712486E+04  0.10100000352E+00 0.  1.
       -3    1    3    3    0  502  0.74340844242E+03 -0.43198719974E+03  0.82711331397E+03  0.11930572062E+04  0.10100000352E+00 0. -1.
</event>
<event>
 5   0  0.4720875E-05  0.1696794E+04  0.7818609E-02  0.8763195E-01
        4   -1    0    0  501    0  0.00000000000E+00  0.00000000000E+00  0.11065772473E+04  0.11065779760E+04  0.12699999809E+01 0. -1.
       -4   -1    0    0    0  501  0.00000000000E+00  0.00000000000E+00 -0.65045215975E+03  0.65045339958E+03  0.12699999809E+01 0.  1.
    10030    2    1    2    0    0  0.00000000000E+00  0.00000000000E+00  0.45612508751E+03  0.17570313756E+04  0.16967937881E+04 0.  0.
        3    1    3    3  502    0 -0.27510952130E+03  0.78806975838E+03  0.70891094783E+02  0.83771400270E+03  0.10100000352E+00 0.  1.
       -3    1    3    3    0  502  0.27510952130E+03 -0.78806975838E+03  0.38523399273E+03  0.91931737292E+03  0.10100000352E+00 0. -1.
</event>
<event>
 5   0  0.1269175E-04  0.1719132E+04  0.7818609E-02  0.8750527E-01
       -2   -1    0    0    0  501  0.00000000000E+00  0.00000000000E+00  0.53670224596E+03  0.53670224597E+03  0.25500000920E-02 0. -1.
        2   -1    0    0  501    0  0.00000000000E+00  0.00000000000E+00 -0.13766554161E+04  0.13766554161E+04  0.25500000920E-02 0.  1.
    10030    2    1    2    0    0  0.00000000000E+00  0.00000000000E+00 -0.83995317009E+03  0.19133576620E+04  0.17191324018E+04 0.  0.
        2    1    3    3  502    0  0.59785527621E+03 -0.37462232110E+03 -0.96644937368E+03  0.11965772882E+04  0.25500000920E-02 0.  1.
       -2    1    3    3    0  502 -0.59785527621E+03  0.37462232110E+03  0.12649620359E+03  0.71678037382E+03  0.25500000920E-02 0. -1.
</event>
<event>
 5   0  0.6615842E-05  0.1699148E+04  0.7818609E-02  0.8761850E-01
        1   -1    0    0  501    0  0.00000000000E+00  0.00000000000E+00  0.75801915529E+03  0.75801915531E+03  0.50400001928E-02 0.  1.
       -1   -1    0    0    0  501  0.00000000000E+00  0.00000000000E+00 -0.95218717886E+03  0.95218717887E+03  0.50400001928E-02 0. -1.
    10030    2    1    2    0    0  0.00000000000E+00  0.00000000000E+00 -0.19416802357E+03  0.17102063342E+04  0.16991481643E+04 0.  0.
        3    1    3    3  502    0 -0.48715122999E+03  0.44336638911E+03 -0.63712603931E+03  0.91641675893E+03  0.10100000352E+00 0. -1.
       -3    1    3    3    0  502  0.48715122999E+03 -0.44336638911E+03  0.44295801575E+03  0.79378957526E+03  0.10100000352E+00 0.  1.
</event>
<event>
 5   0  0.1269175E-04  0.1697693E+04  0.7818609E-02  0.8762681E-01
       -2   -1    0    0    0  501  0.00000000000E+00  0.00000000000E+00  0.16142082056E+04  0.16142082056E+04  0.25500000920E-02 0.  1.
        2   -1    0    0  501    0  0.00000000000E+00  0.00000000000E+00 -0.44637365698E+03  0.44637365698E+03  0.25500000920E-02 0. -1.
    10030    2    1    2    0    0  0.00000000000E+00  0.00000000000E+00  0.11678345486E+04  0.20605818626E+04  0.16976925751E+04 0.  0.
        2    1    3    3  502    0  0.39061761716E+03  0.42667222422E+03 -0.17008579542E+03  0.60295977276E+03  0.25500000920E-02 0. -1.
       -2    1    3    3    0  502 -0.39061761716E+03 -0.42667222422E+03  0.13379203441E+04  0.14576220898E+04  0.25500000920E-02 0.  1.
</event>
<event>
 5   0  0.6834837E-05  0.1681804E+04  0.7818609E-02  0.8771811E-01
        1   -1    0    0  501    0  0.00000000000E+00  0.00000000000E+00  0.65328142440E+03  0.65328142442E+03  0.50400001928E-02 0. -1.
       -1   -1    0    0    0  501  0.00000000000E+00  0.00000000000E+00 -0.10824066282E+04  0.10824066282E+04  0.50400001928E-02 0.  1.
    10030    2    1    2    0    0  0.00000000000E+00  0.00000000000E+00 -0.42912520382E+03  0.17356880526E+04  0.16818039647E+04 0.  0.
        5    1    3    3  502    0 -0.82286325564E+03 -0.11251000276E+03 -0.35043017795E+03  0.90143543186E+03  0.46999998093E+01 0. -1.
       -5    1    3    3    0  502  0.82286325564E+03  0.11251000276E+03 -0.78695025864E+02  0.83425262079E+03  0.46999998093E+01 0.  1.
</event>
<event>
 5   0  0.6564887E-05  0.1694937E+04  0.7818609E-02  0.8764257E-01
       -1   -1    0    0    0  501  0.00000000000E+00  0.00000000000E+00  0.12808285585E+04  0.12808285585E+04  0.50400001928E-02 0.  1.
        1   -1    0    0  501    0  0.00000000000E+00  0.00000000000E+00 -0.56073330847E+03  0.56073330849E+03  0.50400001928E-02 0. -1.
    10030    2    1    2    0    0  0.00000000000E+00  0.00000000000E+00  0.72009525003E+03  0.18415618670E+04  0.16949374445E+04 0.  0.
        4    1    3    3  502    0  0.66216910007E+02 -0.83596782715E+03  0.49300493316E+03  0.97277045814E+03  0.12699999809E+01 0.  1.
       -4    1    3    3    0  502 -0.66216910007E+02  0.83596782715E+03  0.22709031687E+03  0.86879140887E+03  0.12699999809E+01 0. -1.
</event>
<event>
 5   0  0.1393870E-04  0.1685126E+04  0.7818609E-02  0.8769893E-01
        2   -1    0    0  501    0  0.00000000000E+00  0.00000000000E+00  0.12820413554E+04  0.12820413554E+04  0.25500000920E-02 0. -1.
       -2   -1    0    0    0  501  0.00000000000E+00  0.00000000000E+00 -0.55373579300E+03  0.55373579300E+03  0.25500000920E-02 0.  1.
    10030    2    1    2    0    0  0.00000000000E+00  0.00000000000E+00  0.72830556238E+03  0.18357771484E+04  0.16851257361E+04 0.  0.
        3    1    3    3  502    0  0.40177649083E+02  0.24676578183E+03  0.12407004366E+04  0.12656402246E+04  0.10100000352E+00 0. -1.
       -3    1    3    3    0  502 -0.40177649083E+02 -0.24676578183E+03 -0.51239487420E+03  0.57013692379E+03  0.10100000352E+00 0.  1.
</event>
<event>
 5   0  0.6615842E-05  0.1711537E+04  0.7818609E-02  0.8754812E-01
       -1   -1    0    0    0  501  0.00000000000E+00  0.00000000000E+00  0.44759692671E+03  0.44759692674E+03  0.50400001928E-02 0.  1.
        1   -1    0    0  501    0  0.00000000000E+00  0.00000000000E+00 -0.16361591229E+04  0.16361591230E+04  0.50400001928E-02 0. -1.
    10030    2    1    2    0    0  0.00000000000E+00  0.00000000000E+00 -0.11885621962E+04  0.20837560497E+04  0.17115370812E+04 0.  0.
        3    1    3    3  502    0  0.82434780306E+02  0.56765731804E+03  0.17889739664E+03  0.60086155847E+03  0.10100000352E+00 0.  1.
       -3    1    3    3    0  502 -0.82434780306E+02 -0.56765731804E+03 -0.13674595929E+04  0.14828944912E+04  0.10100000352E+00 0. -1.
</event>
<event>
 5   0  0.6539134E-05  0.1700697E+04  0.7818609E-02  0.8760967E-01
       -1   -1    0    0    0  501  0.00000000000E+00  0.00000000000E+00  0.39535927499E+03  0.39535927503E+03  0.50400001928E-02 0.  1.
        1   -1    0    0  501    0  0.00000000000E+00  0.00000000000E+00 -0.18289507111E+04  0.18289507111E+04  0.50400001928E-02 0. -1.
    10030    2    1    2    0    0  0.00000000000E+00  0.00000000000E+00 -0.14335914361E+04  0.22243099862E+04  0.17006970656E+04 0.  0.
        2    1    3    3  502    0 -0.26331821000E+03 -0.43925731087E+03 -0.16046238500E+04  0.16843696640E+04  0.25500000920E-02 0. -1.
       -2    1    3    3    0  502  0.26331821000E+03  0.43925731087E+03  0.17103241391E+03  0.53994032215E+03  0.25500000920E-02 0.  1.
</event>
<event>
 5   0  0.6539134E-05  0.1697652E+04  0.7818609E-02  0.8762705E-01
        1   -1    0    0  501    0  0.00000000000E+00  0.00000000000E+00  0.38744477656E+03  0.38744477659E+03  0.50400001928E-02 0. -1.
       -1   -1    0    0    0  501  0.00000000000E+00  0.00000000000E+00 -0.18596338151E+04  0.18596338151E+04  0.50400001928E-02 0.  1.
    10030    2    1    2    0    0  0.00000000000E+00  0.00000000000E+00 -0.14721890385E+04  0.22470785917E+04  0.16976517994E+04 0.  0.
        2    1    3    3  502    0 -0.12303668738E+03  0.48296202315E+03  0.17338636170E+03  0.52768662355E+03  0.25500000920E-02 0. -1.
       -2    1    3    3    0  502  0.12303668738E+03 -0.48296202315E+03 -0.16455754002E+04  0.17193919682E+04  0.25500000920E-02 0.  1.
</event>
<event>
 5   0  0.1285639E-04  0.1709779E+04  0.7818609E-02  0.8755807E-01
       -2   -1    0    0    0  501  0.00000000000E+00  0.00000000000E+00  0.60868906421E+03  0.60868906422E+03  0.25500000920E-02 0.  1.
        2   -1    0    0  501    0  0.00000000000E+00  0.00000000000E+00 -0.12006721165E+04  0.12006721165E+04  0.25500000920E-02 0. -1.
    10030    2    1    2    0    0  0.00000000000E+00  0.00000000000E+00 -0.59198305228E+03  0.18093611807E+04  0.17097789179E+04 0.  0.
        4    1    3    3  502    0 -0.38596160904E+02 -0.29076228092E+03  0.55377281111E+03  0.62665645043E+03  0.12699999809E+01 0.  1.
       -4    1    3    3    0  502  0.38596160904E+02  0.29076228092E+03 -0.11457558634E+04  0.11827047303E+04  0.12699999809E+01 0. -1.
</event>
<event>
 5   0  0.6601906E-05  0.1695677E+04  0.7818609E-02  0.8763834E-01
       -1   -1    0    0    0  501  0.00000000000E+00  0.00000000000E+00  0.70493389571E+03  0.70493389573E+03  0.50400001928E-02 0. -1.
        1   -1    0    0  501    0  0.00000000000E+00  0.00000000000E+00 -0.10197130690E+04  0.10197130690E+04  0.50400001928E-02 0.  1.
    10030    2    1    2    0    0  0.00000000000E+00  0.00000000000E+00 -0.31477917329E+03  0.17246469647E+04  0.16956772172E+04 0.  0.
        1    1    3    3  502    0  0.19833144645E+03  0.60231822375E+03 -0.72977207073E+03  0.96679360804E+03  0.50400001928E-02 0.  1.
       -1    1    3    3    0  502 -0.19833144645E+03 -0.60231822375E+03  0.41499289744E+03  0.75785335670E+03  0.50400001928E-02 0. -1.
</event>
<event>
 5   0  0.6601906E-05  0.1700747E+04  0.7818609E-02  0.8760938E-01
        1   -1    0    0  501    0  0.00000000000E+00  0.00000000000E+00  0.72713952572E+03  0.72713952574E+03  0.50400001928E-02 0. -1.
       -1   -1    0    0    0  501  0.00000000000E+00  0.00000000000E+00 -0.99449338575E+03  0.99449338576E+03  0.50400001928E-02 0.  1.
    10030    2    1    2    0    0  0.00000000000E+00  0.00000000000E+00 -0.26735386003E+03  0.17216329115E+04  0.17007474226E+04 0.  0.
        1    1    3    3  502    0  0.33126913328E+03  0.36500818281E+03  0.56777205639E+03  0.75188783753E+03  0.50400001928E-02 0. -1.
       -1    1    3    3    0  502 -0.33126913328E+03 -0.36500818281E+03 -0.83512591642E+03  0.96974507397E+03  0.50400001928E-02 0.  1.
</event>
<event>
 5   0  0.1333546E-04  0.1683438E+04  0.7818609E-02  0.8770867E-01
        2   -1    0    0  501    0  0.00000000000E+00  0.00000000000E+00  0.22660342487E+04  0.22660342487E+04  0.25500000920E-02 0. -1.
       -2   -1    0    0    0  501  0.00000000000E+00  0.00000000000E+00 -0.31265676336E+03  0.31265676337E+03  0.25500000920E-02 0.  1.
    10030    2    1    2    0    0  0.00000000000E+00  0.00000000000E+00  0.19533774854E+04  0.25786910121E+04  0.16834380700E+04 0.  0.
        5    1    3    3  502    0  0.61223587716E+03  0.49557954446E+03  0.52218783559E+03  0.94505771242E+03  0.46999998093E+01 0. -1.
       -5    1    3    3    0  502 -0.61223587716E+03 -0.49557954446E+03  0.14311896498E+04  0.16336332997E+04  0.46999998093E+01 0.  1.
</event>
<event>
 5   0  0.1255362E-04  0.1685690E+04  0.7818609E-02  0.8769568E-01
        2   -1    0    0  501    0  0.00000000000E+00  0.00000000000E+00  0.76603551514E+03  0.76603551514E+03  0.25500000920E-02 0.  1.
       -2   -1    0    0    0  501  0.00000000000E+00  0.00000000000E+00 -0.92735598720E+03  0.92735598720E+03  0.25500000920E-02 0. -1.
    10030    2    1    2    0    0  0.00000000000E+00  0.00000000000E+00 -0.16132047206E+03  0.16933915023E+04  0.16856899138E+04 0.  0.
        1    1    3    3  502    0 -0.16431988522E+03  0.81252432310E+03 -0.23364132575E+03  0.86126945228E+03  0.50400001928E-02 0. -1.
       -1    1    3    3    0  502  0.16431988522E+03 -0.81252432310E+03  0.72320853693E+02  0.83212205007E+03  0.50400001928E-02 0.  1.
</event>
<event>
 5   0  0.1255362E-04  0.1705691E+04  0.7818609E-02  0.8758125E-01
       -2   -1    0    0    0  501  0.00000000000E+00  0.00000000000E+00  0.11676319871E+04  0.11676319871E+04  0.25500000920E-02 0.  1.
        2   -1    0    0  501    0  0.00000000000E+00  0.00000000000E+00 -0.62292369009E+03  0.62292369010E+03  0.25500000920E-02 0. -1.
    10030    2    1    2    0    0  0.00000000000E+00  0.00000000000E+00  0.54470829699E+03  0.17905556772E+04  0.17056912101E+04 0.  0.
        1    1    3    3  502    0  0.16389361253E+03  0.14733335868E+03 -0.59251638880E+03  0.63217395219E+03  0.50400001928E-02 0. -1.
       -1    1    3    3    0  502 -0.16389361253E+03 -0.14733335868E+03  0.11372246858E+04  0.11583817250E+04  0.50400001928E-02 0.  1.
</event>
<event>
 5   0  0.6615842E-05  0.1710164E+04  0.7818609E-02  0.8755589E-01
        1   -1    0    0  501    0  0.00000000000E+00  0.00000000000E+00  0.19289062918E+04  0.19289062918E+04  0.50400001928E-02 0.  1.
       -1   -1    0    0    0  501  0.00000000000E+00  0.00000000000E+00 -0.37905680717E+03  0.37905680721E+03  0.50400001928E-02 0. -1.
    10030    2    1    2    0    0  0.00000000000E+00  0.00000000000E+00  0.15498494846E+04  0.23079630990E+04  0.17101638054E+04 0.  0.
        3    1    3    3  502    0  0.22182052290E+03  0.56005413114E+03  0.15939401168E+04  0.17039689200E+04  0.10100000352E+00 0.  1.
       -3    1    3    3    0  502 -0.22182052290E+03 -0.56005413114E+03 -0.44090632211E+02  0.60399417897E+03  0.10100000352E+00 0. -1.
</event>
<event>
 5   0  0.1333546E-04  0.1700454E+04  0.7818609E-02  0.8761105E-01
       -2   -1    0    0    0  501  0.00000000000E+00  0.00000000000E+00  0.48930052903E+03  0.48930052904E+03  0.25500000920E-02 0. -1.
        2   -1    0    0  501    0  0.00000000000E+00  0.00000000000E+00 -0.14773864496E+04  0.14773864496E+04  0.25500000920E-02 0.  1.
    10030    2    1    2    0    0  0.00000000000E+00  0.00000000000E+00 -0.98808592055E+03  0.19666869786E+04  0.17004540233E+04 0.  0.
        5    1    3    3  502    0  0.56862781687E+03 -0.60457380125E+03 -0.70735585809E+03  0.10905143168E+04  0.46999998093E+01 0.  1.
       -5    1    3    3    0  502 -0.56862781687E+03  0.60457380125E+03 -0.28073006246E+03  0.87617266178E+03  0.46999998093E+01 0. -1.
</event>
<event>
 5   0  0.1269175E-04  0.1699435E+04  0.7818609E-02  0.8761687E-01
        2   -1    0    0  501    0  0.00000000000E+00  0.00000000000E+00  0.97570880127E+03  0.97570880127E+03  0.25500000920E-02 0. -1.
       -2   -1    0    0    0  501  0.00000000000E+00  0.00000000000E+00 -0.73999503205E+03  0.73999503206E+03  0.25500000920E-02 0.  1.
    10030    2    1    2    0    0  0.00000000000E+00  0.00000000000E+00  0.23571376922E+03  0.17157038333E+04  0.16994348068E+04 0.  0.
        2    1    3    3  502    0 -0.23609181804E+02 -0.20448853692E+03 -0.71444221006E+03  0.74350563328E+03  0.25500000920E-02 0.  1.
       -2    1    3    3    0  502  0.23609181804E+02  0.20448853692E+03  0.95015597928E+03  0.97219820004E+03  0.25500000920E-02 0. -1.
</event>
<event>
 5   0  0.6834837E-05  0.1732061E+04  0.7818609E-02  0.8743287E-01
       -1   -1    0    0    0  501  0.00000000000E+00  0.00000000000E+00  0.76642130169E+03  0.76642130170E+03  0.50400001928E-02 0. -1.
        1   -1    0    0  501    0  0.00000000000E+00  0.00000000000E+00 -0.97858539199E+03  0.97858539200E+03  0.50400001928E-02 0.  1.
    10030    2    1    2    0    0  0.00000000000E+00  0.00000000000E+00 -0.21216409030E+03  0.17450066937E+04  0.17320608418E+04 0.  0.
        5    1    3    3  502    0  0.43954885400E+03  0.69879872636E+03 -0.36969350094E+03  0.90455416071E+03  0.46999998093E+01 0.  1.
       -5    1    3    3    0  502 -0.43954885400E+03 -0.69879872636E+03  0.15752941064E+03  0.84045253300E+03  0.46999998093E+01 0. -1.
</event>
<event>
 5   0  0.1255362E-04  0.1720626E+04  0.7818609E-02  0.8749687E-01
       -2   -1    0    0    0  501  0.00000000000E+00  0.00000000000E+00  0.21267107822E+04  0.21267107822E+04  0.25500000920E-02 0.  1.
        2   -1    0    0  501    0  0.00000000000E+00  0.00000000000E+00 -0.34802026622E+03  0.34802026623E+03  0.25500000920E-02 0. -1.
    10030    2    1    2    0    0  0.00000000000E+00  0.00000000000E+00  0.17786905159E+04  0.24747310484E+04  0.17206259937E+04 0.  0.
        1    1    3    3  502    0 -0.82992286436E+02 -0.34075903684E+03  0.20192225193E+04  0.20494545672E+04  0.50400001928E-02 0.  1.
       -1    1    3    3    0  502  0.82992286436E+02  0.34075903684E+03 -0.24053200331E+03  0.42527648117E+03  0.50400001928E-02 0. -1.
</event>
<event>
 5   0  0.1285639E-04  0.1700712E+04  0.7818609E-02  0.8760958E-01
       -2   -1    0    0    0  501  0.00000000000E+00  0.00000000000E+00  0.88342218213E+03  0.88342218213E+03  0.25500000920E-02 0.  1.
        2   -1    0    0  501    0  0.00000000000E+00  0.00000000000E+00 -0.81852731921E+03  0.81852731922E+03  0.25500000920E-02 0. -1.
    10030    2    1    2    0    0  0.00000000000E+00  0.00000000000E+00  0.64894862912E+02  0.17019495013E+04  0.17007118398E+04 0.  0.
        4    1    3    3  502    0  0.42382117726E+03 -0.34686779140E+03  0.68342979927E+03  0.87579652799E+03  0.12699999809E+01 0.  1.
       -4    1    3    3    0  502 -0.42382117726E+03  0.34686779140E+03 -0.61853493636E+03  0.82615297336E+03  0.12699999809E+01 0. -1.
</event>
<event>
 5   0  0.1255362E-04  0.1698845E+04  0.7818609E-02  0.8762023E-01
       -2   -1    0    0    0  501  0.00000000000E+00  0.00000000000E+00  0.37692658720E+03  0.37692658721E+03  0.25500000920E-02 0.  1.
        2   -1    0    0  501    0  0.00000000000E+00  0.00000000000E+00 -0.19142157896E+04  0.19142157896E+04  0.25500000920E-02 0. -1.
    10030    2    1    2    0    0  0.00000000000E+00  0.00000000000E+00 -0.15372892024E+04  0.22911423768E+04  0.16988452840E+04 0.  0.
        1    1    3    3  502    0  0.78812898248E+03 -0.29584421581E+03 -0.92151080409E+03  0.12481399181E+04  0.50400001928E-02 0. -1.
       -1    1    3    3    0  502 -0.78812898248E+03  0.29584421581E+03 -0.61577839834E+03  0.10430024587E+04  0.50400001928E-02 0.  1.
</event>
<event>
 5   0  0.1269175E-04  0.1683312E+04  0.7818609E-02  0.8770940E-01
        2   -1    0    0  501    0  0.00000000000E+00  0.00000000000E+00  0.88313609185E+03  0.88313609185E+03  0.25500000920E-02 0. -1.
       -2   -1    0    0    0  501  0.00000000000E+00  0.00000000000E+00 -0.80212395567E+03  0.80212395568E+03  0.25500000920E-02 0.  1.
    10030    2    1    2    0    0  0.00000000000E+00  0.00000000000E+00  0.81012136175E+02  0.16852600475E+04  0.16833117541E+04 0.  0.
        2    1    3    3  502    0 -0.12662829869E+03  0.44666887374E+03 -0.66232983172E+03  0.80884399904E+03  0.25500000920E-02 0.  1.
       -2    1    3    3    0  502  0.12662829869E+03 -0.44666887374E+03  0.74334196789E+03  0.87641604848E+03  0.25500000920E-02 0. -1.
</event>
<event>
 5   0  0.6539134E-05  0.1703838E+04  0.7818609E-02  0.8759178E-01
       -1   -1    0    0    0  501  0.00000000000E+00  0.00000000000E+00  0.49809288004E+03  0.49809288006E+03  0.50400001928E-02 0.  1.
        1   -1    0    0  501    0  0.00000000000E+00  0.00000000000E+00 -0.14570898503E+04  0.14570898503E+04  0.50400001928E-02 0. -1.
    10030    2    1    2    0    0  0.00000000000E+00  0.00000000000E+00 -0.95899697022E+03  0.19551827303E+04  0.17038381144E+04 0.  0.
        2    1    3    3  502    0  0.71512579424E+03  0.23809053340E+03 -0.93515666522E+03  0.12010870044E+04  0.25500000920E-02 0.  1.
       -2    1    3    3    0  502 -0.71512579424E+03 -0.23809053340E+03 -0.23840305000E+02  0.75409572591E+03  0.25500000920E-02 0. -1.
</event>
<event>
 5   0  0.6539134E-05  0.1680295E+04  0.7818609E-02  0.8772684E-01
        1   -1    0    0  501    0  0.00000000000E+00  0.00000000000E+00  0.74411265583E+03  0.74411265584E+03  0.50400001928E-02 0. -1.
       -1   -1    0    0    0  501  0.00000000000E+00  0.00000000000E+00 -0.94857610733E+03  0.94857610734E+03  0.50400001928E-02 0.  1.
    10030    2    1    2    0    0  0.00000000000E+00  0.00000000000E+00 -0.20446345150E+03  0.16926887632E+04  0.16802946010E+04 0.  0.
        2    1    3    3  502    0 -0.52838221885E+03  0.53320295499E+03  0.27785002168E+03  0.80043350440E+03  0.25500000920E-02 0. -1.
       -2    1    3    3    0  502  0.52838221885E+03 -0.53320295499E+03 -0.48231347318E+03  0.89225525878E+03  0.25500000920E-02 0.  1.
</event>
<event>
 5   0  0.1255362E-04  0.1697239E+04  0.7818609E-02  0.8762941E-01
        2   -1    0    0  501    0  0.00000000000E+00  0.00000000000E+00  0.16141979148E+04  0.16141979148E+04  0.25500000920E-02 0. -1.
       -2   -1    0    0    0  501  0.00000000000E+00  0.00000000000E+00 -0.44613810972E+03  0.44613810973E+03  0.25500000920E-02 0.  1.
    10030    2    1    2    0    0  0.00000000000E+00  0.00000000000E+00  0.11680598051E+04  0.20603360246E+04  0.16972391776E+04 0.  0.
        1    1    3    3  502    0  0.55744737508E+03 -0.61655014776E+03  0.79172807383E+03  0.11479176815E+04  0.50400001928E-02 0.  1.
       -1    1    3    3    0  502 -0.55744737508E+03  0.61655014776E+03  0.37633173128E+03  0.91241834302E+03  0.50400001928E-02 0. -1.
</event>
<event>
 5   0  0.6601906E-05  0.1698829E+04  0.7818609E-02  0.8762032E-01
        1   -1    0    0  501    0  0.00000000000E+00  0.00000000000E+00  0.17419267862E+04  0.17419267862E+04  0.50400001928E-02 0. -1.
       -1   -1    0    0    0  501  0.00000000000E+00  0.00000000000E+00 -0.41419951470E+03  0.41419951474E+03  0.50400001928E-02 0.  1.
    10030    2    1    2    0    0  0.00000000000E+00  0.00000000000E+00  0.13277272715E+04  0.21561263010E+04  0.16988292787E+04 0.  0.
        1    1    3    3  502    0 -0.45914941708E+03 -0.70368309436E+03  0.82196308960E+03  0.11754196719E+04  0.50400001928E-02 0. -1.
       -1    1    3    3    0  502  0.45914941708E+03  0.70368309436E+03  0.50576418193E+03  0.98070662903E+03  0.50400001928E-02 0.  1.
</event>
<event>
 5   0  0.6834837E-05  0.1712256E+04  0.7818609E-02  0.8754405E-01
       -1   -1    0    0    0  501  0.00000000000E+00  0.00000000000E+00  0.74074423397E+03  0.74074423399E+03  0.50400001928E-02 0. -1.
        1   -1    0    0  501    0  0.00000000000E+00  0.00000000000E+00 -0.98948501015E+03  0.98948501017E+03  0.50400001928E-02 0.  1.
    10030    2    1    2    0    0  0.00000000000E+00  0.00000000000E+00 -0.24874077618E+03  0.17302292442E+04  0.17122561910E+04 0.  0.
        5    1    3    3  502    0  0.37001177000E+03  0.56535642825E+03 -0.65562323553E+03  0.94148845871E+03  0.46999998093E+01 0.  1.
       -5    1    3    3    0  502 -0.37001177000E+03 -0.56535642825E+03  0.40688245936E+03  0.78874078545E+03  0.46999998093E+01 0. -1.
</event>
<event>
 5   0  0.1255362E-04  0.1697917E+04  0.7818609E-02  0.8762553E-01
       -2   -1    0    0    0  501  0.00000000000E+00  0.00000000000E+00  0.19155899570E+04  0.19155899570E+04  0.25500000920E-02 0. -1.
        2   -1    0    0  501    0  0.00000000000E+00  0.00000000000E+00 -0.37624454028E+03  0.37624454029E+03  0.25500000920E-02 0.  1.
    10030    2    1    2    0    0  0.00000000000E+00  0.00000000000E+00  0.15393454167E+04  0.22918344973E+04  0.16979166796E+04 0.  0.
        1    1    3    3  502    0 -0.78180728777E+03  0.68256002193E+02  0.12067401916E+04  0.14394802559E+04  0.50400001928E-02 0. -1.
       -1    1    3    3    0  502  0.78180728777E+03 -0.68256002193E+02  0.33260522513E+03  0.85235424141E+03  0.50400001928E-02 0.  1.
</event>
<event>
 5   0  0.6564887E-05  0.1694566E+04  0.7818609E-02  0.8764469E-01
       -1   -1    0    0    0  501  0.00000000000E+00  0.00000000000E+00  0.30537092486E+03  0.30537092491E+03  0.50400001928E-02 0.  1.
        1   -1    0    0  501    0  0.00000000000E+00  0.00000000000E+00 -0.23508749016E+04  0.23508749016E+04  0.50400001928E-02 0. -1.
    10030    2    1    2    0    0  0.00000000000E+00  0.00000000000E+00 -0.20455039767E+04  0.26562458265E+04  0.16945664260E+04 0.  0.
        4    1    3    3  502    0 -0.67730728004E+03  0.30389149740E+03 -0.16629249434E+04  0.18211030103E+04  0.12699999809E+01 0. -1.
       -4    1    3    3    0  502  0.67730728004E+03 -0.30389149740E+03 -0.38257903326E+03  0.83514281615E+03  0.12699999809E+01 0.  1.
</event>
<event>
 5   0  0.1269175E-04  0.1712942E+04  0.7818609E-02  0.8754017E-01
        2   -1    0    0  501    0  0.00000000000E+00  0.00000000000E+00  0.19888364971E+04  0.19888364971E+04  0.25500000920E-02 0.  1.
       -2   -1    0    0    0  501  0.00000000000E+00  0.00000000000E+00 -0.36883020928E+03  0.36883020929E+03  0.25500000920E-02 0. -1.
    10030    2    1    2    0    0  0.00000000000E+00  0.00000000000E+00  0.16200062879E+04  0.23576667064E+04  0.17129424760E+04 0.  0.
        2    1    3    3  502    0  0.53462082566E+03 -0.18039892826E+03 -0.76862292653E+02  0.56944798936E+03  0.25500000920E-02 0. -1.
       -2    1    3    3    0  502 -0.53462082566E+03  0.18039892826E+03  0.16968685805E+04  0.17882187171E+04  0.25500000920E-02 0.  1.
</event>
<event>
 5   0  0.6564887E-05  0.1703283E+04  0.7818609E-02  0.8759494E-01
        1   -1    0    0  501    0  0.00000000000E+00  0.00000000000E+00  0.23262360532E+03  0.23262360538E+03  0.50400001928E-02 0. -1.
       -1   -1    0    0    0  501  0.00000000000E+00  0.00000000000E+00 -0.31178834951E+04  0.31178834951E+04  0.50400001928E-02 0.  1.
    10030    2    1    2    0    0  0.00000000000E+00  0.00000000000E+00 -0.28852598898E+04  0.33505071005E+04  0.17032830648E+04 0.  0.
        4    1    3    3  502    0  0.61827017878E+03 -0.33972060052E+03 -0.23811257703E+04  0.24834310232E+04  0.12699999809E+01 0.  1.
       -4    1    3    3    0  502 -0.61827017878E+03  0.33972060052E+03 -0.50413411950E+03  0.86707607725E+03  0.12699999809E+01 0. -1.
</event>
<event>
 5   0  0.6601906E-05  0.1694068E+04  0.7818609E-02  0.8764755E-01
        1   -1    0    0  501    0  0.00000000000E+00  0.00000000000E+00  0.65098827859E+03  0.65098827861E+03  0.50400001928E-02 0.  1.
       -1   -1    0    0    0  501  0.00000000000E+00  0.00000000000E+00 -0.11021187672E+04  0.11021187672E+04  0.50400001928E-02 0. -1.
    10030    2    1    2    0    0  0.00000000000E+00  0.00000000000E+00 -0.45113048856E+03  0.17531070458E+04  0.16940677661E+04 0.  0.
        1    1    3    3  502    0 -0.63836012237E+03  0.27124565316E+03  0.27757710528E+03  0.74707891122E+03  0.50400001928E-02 0.  1.
       -1    1    3    3    0  502  0.63836012237E+03 -0.27124565316E+03 -0.72870759383E+03  0.10060281346E+04  0.50400001928E-02 0. -1.
</event>
<event>
 5   0  0.1333546E-04  0.1701925E+04  0.7818609E-02  0.8760267E-01
        2   -1    0    0  501    0  0.00000000000E+00  0.00000000000E+00  0.13917787224E+04  0.13917787224E+04  0.25500000920E-02 0.  1.
       -2   -1    0    0    0  501  0.00000000000E+00  0.00000000000E+00 -0.52029631251E+03  0.52029631252E+03  0.25500000920E-02 0. -1.
    10030    2    1    2    0    0  0.00000000000E+00  0.00000000000E+00  0.87148240985E+03  0.19120750349E+04  0.17019251888E+04 0.  0.
        5    1    3    3  502    0  0.43464958388E+03  0.22075414080E+03  0.12193317580E+04  0.13131811290E+04  0.46999998093E+01 0.  1.
       -5    1    3    3    0  502 -0.43464958388E+03 -0.22075414080E+03 -0.34784934819E+03  0.59889390586E+03  0.46999998093E+01 0. -1.
</event>
<event>
 5   0  0.6615842E-05  0.1703522E+04  0.7818609E-02  0.8759358E-01
        1   -1    0    0  501    0  0.00000000000E+00  0.00000000000E+00  0.12677248129E+04  0.12677248129E+04  0.50400001928E-02 0. -1.
       -1   -1    0    0    0  501  0.00000000000E+00  0.00000000000E+00 -0.57228246678E+03  0.57228246681E+03  0.50400001928E-02 0.  1.
    10030    2    1    2    0    0  0.00000000000E+00  0.00000000000E+00  0.69544234611E+03  0.18400072797E+04  0.17035218615E+04 0.  0.
        3    1    3    3  502    0  0.30007187151E+03 -0.78323517184E+03  0.18752735100E+03  0.85945737535E+03  0.10100000352E+00 0.  1.
       -3    1    3    3    0  502 -0.30007187151E+03  0.78323517184E+03  0.50791499512E+03  0.98054990436E+03  0.10100000352E+00 0. -1.
</event>
<event>
 5   0  0.6615842E-05  0.1694133E+04  0.7818609E-02  0.8764718E-01
        1   -1    0    0  501    0  0.00000000000E+00  0.00000000000E+00  0.92104333127E+03  0.92104333129E+03  0.50400001928E-02 0.  1.
       -1   -1    0    0    0  501  0.00000000000E+00  0.00000000000E+00 -0.77903119809E+03  0.77903119810E+03  0.50400001928E-02 0. -1.
    10030    2    1    2    0    0  0.00000000000E+00  0.00000000000E+00  0.14201213318E+03  0.17000745294E+04  0.16941328046E+04 0.  0.
        3    1    3    3  502    0 -0.71613213119E+03 -0.19240306414E+03 -0.33988978557E+03  0.81571394800E+03  0.10100000352E+00 0. -1.
       -3    1    3    3    0  502  0.71613213119E+03  0.19240306414E+03  0.48190191876E+03  0.88436058139E+03  0.10100000352E+00 0.  1.
</event>
<event>
 5   0  0.1269175E-04  0.1689765E+04  0.7818609E-02  0.8767223E-01
       -2   -1    0    0    0  501  0.00000000000E+00  0.00000000000E+00  0.48891150260E+03  0.48891150261E+03  0.25500000920E-02 0. -1.
        2   -1    0    0  501    0  0.00000000000E+00  0.00000000000E+00 -0.14600317558E+04  0.14600317558E+04  0.25500000920E-02 0.  1.
    10030    2    1    2    0    0  0.00000000000E+00  0.00000000000E+00 -0.97112025320E+03  0.19489432584E+04  0.16897648589E+04 0.  0.
        2    1    3    3  502    0  0.21710584095E+03 -0.50270863156E+03 -0.12276562981E+04  0.13442436166E+04  0.25500000920E-02 0.  1.
       -2    1    3    3    0  502 -0.21710584095E+03  0.50270863156E+03  0.25653604494E+03  0.60469964180E+03  0.25500000920E-02 0. -1.
</event>
<event>
 5   0  0.1285639E-04  0.1697438E+04  0.7818609E-02  0.8762827E-01
       -2   -1    0    0    0  501  0.00000000000E+00  0.00000000000E+00  0.57585204109E+03  0.57585204109E+03  0.25500000920E-02 0. -1.
        2   -1    0    0  501    0  0.00000000000E+00  0.00000000000E+00 -0.12508834065E+04  0.12508834065E+04  0.25500000920E-02 0.  1.
    10030    2    1    2    0    0  0.00000000000E+00  0.00000000000E+00 -0.67503136542E+03  0.18267354476E+04  0.16974377901E+04 0.  0.
        4    1    3    3  502    0 -0.13760006084E+03 -0.52688805661E+03  0.36305290362E+03  0.65448745188E+03  0.12699999809E+01 0. -1.
       -4    1    3    3    0  502  0.13760006084E+03  0.52688805661E+03 -0.10380842690E+04  0.11722479957E+04  0.12699999809E+01 0.  1.
</event>
<event>
 5   0  0.6615842E-05  0.1691923E+04  0.7818609E-02  0.8765985E-01
       -1   -1    0    0    0  501  0.00000000000E+00  0.00000000000E+00  0.86894387750E+03  0.86894387751E+03  0.50400001928E-02 0. -1.
        1   -1    0    0  501    0  0.00000000000E+00  0.00000000000E+00 -0.82358670811E+03  0.82358670813E+03  0.50400001928E-02 0.  1.
    10030    2    1    2    0    0  0.00000000000E+00  0.00000000000E+00  0.45357169384E+02  0.16925305856E+04  0.16919227259E+04 0.  0.
        3    1    3    3  502    0  0.33729211966E+03 -0.12124328368E+03 -0.74387650330E+03  0.82572281680E+03  0.10100000352E+00 0.  1.
       -3    1    3    3    0  502 -0.33729211966E+03  0.12124328368E+03  0.78923367268E+03  0.86680776884E+03  0.10100000352E+00 0. -1.
</event>
<event>
 5   0  0.1269175E-04  0.1699399E+04  0.7818609E-02  0.8761707E-01
       -2   -1    0    0    0  501  0.00000000000E+00  0.00000000000E+00  0.45240700876E+03  0.45240700877E+03  0.25500000920E-02 0. -1.
        2   -1    0    0  501    0  0.00000000000E+00  0.00000000000E+00 -0.15958845067E+04  0.15958845067E+04  0.25500000920E-02 0.  1.
    10030    2    1    2    0    0  0.00000000000E+00  0.00000000000E+00 -0.11434774979E+04  0.20482915155E+04  0.16993991126E+04 0.  0.
        2    1    3    3  502    0  0.49692631178E+03 -0.36239930609E+03  0.13490249569E+03  0.62965681108E+03  0.25500000920E-02 0. -1.
       -2    1    3    3    0  502 -0.49692631178E+03  0.36239930609E+03 -0.12783799936E+04  0.14186347044E+04  0.25500000920E-02 0.  1.
</event>
<event>
 5   0  0.1285639E-04  0.1703967E+04  0.7818609E-02  0.8759105E-01
        2   -1    0    0  501    0  0.00000000000E+00  0.00000000000E+00  0.97801730117E+03  0.97801730117E+03  0.25500000920E-02 0.  1.
       -2   -1    0    0    0  501  0.00000000000E+00  0.00000000000E+00 -0.74219119989E+03  0.74219119989E+03  0.25500000920E-02 0. -1.
    10030    2    1    2    0    0  0.00000000000E+00  0.00000000000E+00  0.23582610128E+03  0.17202085011E+04  0.17039669413E+04 0.  0.
        4    1    3    3  502    0  0.56864397781E+03 -0.16481827000E+03 -0.50058733951E+03  0.77531305484E+03  0.12699999809E+01 0. -1.
       -4    1    3    3    0  502 -0.56864397781E+03  0.16481827000E+03  0.73641344079E+03  0.94489544623E+03  0.12699999809E+01 0.  1.
</event>
<event>
 5   0  0.1393870E-04  0.1695090E+04  0.7818609E-02  0.8764170E-01
       -2   -1    0    0    0  501  0.00000000000E+00  0.00000000000E+00  0.91852360976E+03  0.91852360976E+03  0.25500000920E-02 0.  1.
        2   -1    0    0  501    0  0.00000000000E+00  0.00000000000E+00 -0.78205109432E+03  0.78205109433E+03  0.25500000920E-02 0. -1.
    10030    2    1    2    0    0  0.00000000000E+00  0.00000000000E+00  0.13647251544E+03  0.17005747041E+04  0.16950898433E+04 0.  0.
        3    1    3    3  502    0 -0.22855274630E+03 -0.80041221118E+03 -0.91767476633E+02  0.83744692107E+03  0.10100000352E+00 0. -1.
       -3    1    3    3    0  502  0.22855274630E+03  0.80041221118E+03  0.22823999207E+03  0.86312778302E+03  0.10100000352E+00 0.  1.
</event>
<event>
 5   0  0.6834837E-05  0.1694820E+04  0.7818609E-02  0.8764324E-01
        1   -1    0    0  501    0  0.00000000000E+00  0.00000000000E+00  0.17629047442E+04  0.17629047442E+04  0.50400001928E-02 0.  1.
       -1   -1    0    0    0  501  0.00000000000E+00  0.00000000000E+00 -0.40734129364E+03  0.40734129368E+03  0.50400001928E-02 0. -1.
    10030    2    1    2    0    0  0.00000000000E+00  0.00000000000E+00  0.13555634506E+04  0.21702460379E+04  0.16948202254E+04 0.  0.
        5    1    3    3  502    0  0.38039529243E+03  0.31645832249E+03 -0.20311283482E+03  0.53490500282E+03  0.46999998093E+01 0. -1.
       -5    1    3    3    0  502 -0.38039529243E+03 -0.31645832249E+03  0.15586762854E+04  0.16353410351E+04  0.46999998093E+01 0.  1.
</event>
<event>
 5   0  0.1269175E-04  0.1697918E+04  0.7818609E-02  0.8762553E-01
       -2   -1    0    0    0  501  0.00000000000E+00  0.00000000000E+00  0.15823234691E+04  0.15823234691E+04  0.25500000920E-02 0.  1.
        2   -1    0    0  501    0  0.00000000000E+00  0.00000000000E+00 -0.45548925617E+03  0.45548925617E+03  0.25500000920E-02 0. -1.
    10030    2    1    2    0    0  0.00000000000E+00  0.00000000000E+00  0.11268342130E+04  0.20378127253E+04  0.16979179485E+04 0.  0.
        2    1    3    3  502    0 -0.65394794796E+03 -0.73376663332E+02 -0.80332480129E+02  0.66293692063E+03  0.25500000920E-02 0. -1.
       -2    1    3    3    0  502  0.65394794796E+03  0.73376663332E+02  0.12071666931E+04  0.13748758047E+04  0.25500000920E-02 0.  1.
</event>
<event>
 5   0  0.4720875E-05  0.1698348E+04  0.7818609E-02  0.8762307E-01
        3   -1    0    0  501    0  0.00000000000E+00  0.00000000000E+00  0.42496579477E+03  0.42496580677E+03  0.10100000352E+00 0.  1.
       -3   -1    0    0    0  501  0.00000000000E+00  0.00000000000E+00 -0.16968337735E+04  0.16968337765E+04  0.10100000352E+00 0. -1.
    10030    2    1    2    0    0  0.00000000000E+00  0.00000000000E+00 -0.12718679787E+04  0.21217995833E+04  0.16983478196E+04 0.  0.
        4    1    3    3  502    0  0.18977146362E+03  0.24812815129E+03  0.35057444219E+03  0.46955813302E+03  0.12699999809E+01 0.  1.
       -4    1    3    3    0  502 -0.18977146362E+03 -0.24812815129E+03 -0.16224424209E+04  0.16522414503E+04  0.12699999809E+01 0. -1.
</event>
<event>
 5   0  0.6564887E-05  0.1704270E+04  0.7818609E-02  0.8758933E-01
        1   -1    0    0  501    0  0.00000000000E+00  0.00000000000E+00  0.10477486665E+04  0.10477486665E+04  0.50400001928E-02 0.  1.
       -1   -1    0    0    0  501  0.00000000000E+00  0.00000000000E+00 -0.69304252528E+03  0.69304252530E+03  0.50400001928E-02 0. -1.
    10030    2    1    2    0    0  0.00000000000E+00  0.00000000000E+00  0.35470614122E+03  0.17407911918E+04  0.17042703796E+04 0.  0.
        4    1    3    3  502    0  0.18721798708E+03 -0.79832254218E+03  0.41419096707E+03  0.91865402962E+03  0.12699999809E+01 0. -1.
       -4    1    3    3    0  502 -0.18721798708E+03  0.79832254218E+03 -0.59484825853E+02  0.82213716219E+03  0.12699999809E+01 0.  1.
</event>
<event>
 5   0  0.1269175E-04  0.1677244E+04  0.7818609E-02  0.8774450E-01
        2   -1    0    0  501    0  0.00000000000E+00  0.00000000000E+00  0.19741460758E+04  0.19741460758E+04  0.25500000920E-02 0.  1.
       -2   -1    0    0    0  501  0.00000000000E+00  0.00000000000E+00 -0.35624878039E+03  0.35624878040E+03  0.25500000920E-02 0. -1.
    10030    2    1    2    0    0  0.00000000000E+00  0.00000000000E+00  0.16178972954E+04  0.23303948562E+04  0.16772443255E+04 0.  0.
        2    1    3    3  502    0  0.20577280988E+03  0.72279463034E+03  0.13260525678E+04  0.15242014105E+04  0.25500000920E-02 0.  1.
       -2    1    3    3    0  502 -0.20577280988E+03 -0.72279463034E+03  0.29184472756E+03  0.80619344574E+03  0.25500000920E-02 0. -1.
</event>
<event>
 5   0  0.6834837E-05  0.1725574E+04  0.7818609E-02  0.8746911E-01
        1   -1    0    0  501    0  0.00000000000E+00  0.00000000000E+00  0.84039369571E+03  0.84039369572E+03  0.50400001928E-02 0.  1.
       -1   -1    0    0    0  501  0.00000000000E+00  0.00000000000E+00 -0.88577727751E+03  0.88577727752E+03  0.50400001928E-02 0. -1.
    10030    2    1    2    0    0  0.00000000000E+00  0.00000000000E+00 -0.45383581799E+02  0.17261709732E+04  0.17255742694E+04 0.  0.
        5    1    3    3  502    0  0.22487483151E+03  0.33696228218E+03  0.73932439185E+03  0.84305095684E+03  0.46999998093E+01 0.  1.
       -5    1    3    3    0  502 -0.22487483151E+03 -0.33696228218E+03 -0.78470797365E+03  0.88312001640E+03  0.46999998093E+01 0. -1.
</event>
<event>
 5   0  0.6834837E-05  0.1699892E+04  0.7818609E-02  0.8761426E-01
       -1   -1    0    0    0  501  0.00000000000E+00  0.00000000000E+00  0.44342776922E+03  0.44342776925E+03  0.50400001928E-02 0. -1.
        1   -1    0    0  501    0  0.00000000000E+00  0.00000000000E+00 -0.16291453187E+04  0.16291453187E+04  0.50400001928E-02 0.  1.
    10030    2    1    2    0    0  0.00000000000E+00  0.00000000000E+00 -0.11857175494E+04  0.20725730879E+04  0.16998920841E+04 0.  0.
        5    1    3    3  502    0  0.67763038683E+03  0.40153365813E+02 -0.12164498069E+04  0.13930425179E+04  0.46999998093E+01 0.  1.
       -5    1    3    3    0  502 -0.67763038683E+03 -0.40153365813E+02  0.30732257479E+02  0.67953057002E+03  0.46999998093E+01 0. -1.
</event>
<event>
 5   0  0.6615842E-05  0.1620763E+04  0.7818609E-02  0.8807893E-01
       -1   -1    0    0    0  501  0.00000000000E+00  0.00000000000E+00  0.53190013635E+03  0.53190013637E+03  0.50400001928E-02 0. -1.
        1   -1    0    0  501    0  0.00000000000E+00  0.00000000000E+00 -0.12346639614E+04  0.12346639614E+04  0.50400001928E-02 0.  1.
    10030    2    1    2    0    0  0.00000000000E+00  0.00000000000E+00 -0.70276382503E+03  0.17665640978E+04  0.16207626963E+04 0.  0.
        3    1    3    3  502    0 -0.41919791662E+03 -0.51276266557E+03  0.15760125863E+03  0.68080144787E+03  0.10100000352E+00 0. -1.
       -3    1    3    3    0  502  0.41919791662E+03  0.51276266557E+03 -0.86036508367E+03  0.10857626499E+04  0.10100000352E+00 0.  1.
</event>
<event>
 5   0  0.6539134E-05  0.1697401E+04  0.7818609E-02  0.8762848E-01
       -1   -1    0    0    0  501  0.00000000000E+00  0.00000000000E+00  0.34875153456E+03  0.34875153459E+03  0.50400001928E-02 0. -1.
        1   -1    0    0  501    0  0.00000000000E+00  0.00000000000E+00 -0.20653458734E+04  0.20653458735E+04  0.50400001928E-02 0.  1.
    10030    2    1    2    0    0  0.00000000000E+00  0.00000000000E+00 -0.17165943389E+04  0.24140974080E+04  0.16974010048E+04 0.  0.
        2    1    3    3  502    0 -0.63897925954E+03 -0.30179162808E+03 -0.15267760890E+04  0.16823845894E+04  0.25500000920E-02 0.  1.
       -2    1    3    3    0  502  0.63897925954E+03  0.30179162808E+03 -0.18981824991E+03  0.73171281860E+03  0.25500000920E-02 0. -1.
</event>
<event>
 5   0  0.1333546E-04  0.1644521E+04  0.7818609E-02  0.8793654E-01
       -2   -1    0    0    0  501  0.00000000000E+00  0.00000000000E+00  0.46509837135E+03  0.46509837135E+03  0.25500000920E-02 0.  1.
        2   -1    0    0  501    0  0.00000000000E+00  0.00000000000E+00 -0.14536973309E+04  0.14536973309E+04  0.25500000920E-02 0. -1.
    10030    2    1    2    0    0  0.00000000000E+00  0.00000000000E+00 -0.98859895953E+03  0.19187957022E+04  0.16445209163E+04 0.  0.
        5    1    3    3  502    0 -0.55703681649E+03  0.31565301624E+03 -0.10962536753E+04  0.12695357624E+04  0.46999998093E+01 0. -1.
       -5    1    3    3    0  502  0.55703681649E+03 -0.31565301624E+03  0.10765471574E+03  0.64925993978E+03  0.46999998093E+01 0.  1.
</event>
<event>
 5   0  0.6564887E-05  0.1696074E+04  0.7818609E-02  0.8763607E-01
        1   -1    0    0  501    0  0.00000000000E+00  0.00000000000E+00  0.13626147379E+04  0.13626147379E+04  0.50400001928E-02 0.  1.
       -1   -1    0    0    0  501  0.00000000000E+00  0.00000000000E+00 -0.52778420266E+03  0.52778420269E+03  0.50400001928E-02 0. -1.
    10030    2    1    2    0    0  0.00000000000E+00  0.00000000000E+00  0.83483053525E+03  0.18903989406E+04  0.16960737402E+04 0.  0.
        4    1    3    3  502    0 -0.30983011097E+03 -0.21718035639E+03  0.12633192622E+04  0.13187642610E+04  0.12699999809E+01 0.  1.
       -4    1    3    3    0  502  0.30983011097E+03  0.21718035639E+03 -0.42848872699E+03  0.57163467960E+03  0.12699999809E+01 0. -1.
</event>
<event>
 5   0  0.6834837E-05  0.1701652E+04  0.7818609E-02  0.8760423E-01
       -1   -1    0    0    0  501  0.00000000000E+00  0.00000000000E+00  0.91804244584E+03  0.91804244585E+03  0.50400001928E-02 0.  1.
        1   -1    0    0  501    0  0.00000000000E+00  0.00000000000E+00 -0.78853093452E+03  0.78853093453E+03  0.50400001928E-02 0. -1.
    10030    2    1    2    0    0  0.00000000000E+00  0.00000000000E+00  0.12951151132E+03  0.17065733804E+04  0.17016519829E+04 0.  0.
        5    1    3    3  502    0  0.62529025397E+03 -0.49180848889E+03 -0.23781081009E+03  0.83032497424E+03  0.46999998093E+01 0.  1.
       -5    1    3    3    0  502 -0.62529025397E+03  0.49180848889E+03  0.36732232141E+03  0.87624840614E+03  0.46999998093E+01 0. -1.
</event>
<event>
 5   0  0.1269175E-04  0.1703842E+04  0.7818609E-02  0.8759176E-01
       -2   -1    0    0    0  501  0.00000000000E+00  0.00000000000E+00  0.59601740616E+03  0.59601740616E+03  0.25500000920E-02 0. -1.
        2   -1    0    0  501    0  0.00000000000E+00  0.00000000000E+00 -0.12176990270E+04  0.12176990270E+04  0.25500000920E-02 0.  1.
    10030    2    1    2    0    0  0.00000000000E+00  0.00000000000E+00 -0.62168162083E+03  0.18137164332E+04  0.17038424992E+04 0.  0.
        2    1    3    3  502    0  0.54539917682E+01  0.58117218218E+03 -0.97388737747E+03  0.11341285092E+04  0.25500000920E-02 0.  1.
       -2    1    3    3    0  502 -0.54539917682E+01 -0.58117218218E+03  0.35220575665E+03  0.67958792396E+03  0.25500000920E-02 0. -1.
</event>
<event>
 5   0  0.6539134E-05  0.1650716E+04  0.7818609E-02  0.8789983E-01
        1   -1    0    0  501    0  0.00000000000E+00  0.00000000000E+00  0.57712569667E+03  0.57712569669E+03  0.50400001928E-02 0.  1.
       -1   -1    0    0    0  501  0.00000000000E+00  0.00000000000E+00 -0.11803598788E+04  0.11803598788E+04  0.50400001928E-02 0. -1.
    10030    2    1    2    0    0  0.00000000000E+00  0.00000000000E+00 -0.60323418212E+03  0.17574855755E+04  0.16507162293E+04 0.  0.
        2    1    3    3  502    0 -0.36838504949E+03  0.30585357835E+03 -0.10173818938E+04  0.11244197944E+04  0.25500000920E-02 0. -1.
       -2    1    3    3    0  502  0.36838504949E+03 -0.30585357835E+03  0.41414771172E+03  0.63306578111E+03  0.25500000920E-02 0.  1.
</event>
<event>
 5   0  0.1333546E-04  0.1700008E+04  0.7818609E-02  0.8761360E-01
       -2   -1    0    0    0  501  0.00000000000E+00  0.00000000000E+00  0.36555778833E+03  0.36555778834E+03  0.25500000920E-02 0.  1.
        2   -1    0    0  501    0  0.00000000000E+00  0.00000000000E+00 -0.19764499273E+04  0.19764499273E+04  0.25500000920E-02 0. -1.
    10030    2    1    2    0    0  0.00000000000E+00  0.00000000000E+00 -0.16108921389E+04  0.23420077156E+04  0.17000078402E+04 0.  0.
        5    1    3    3  502    0  0.26624239865E+03  0.80206860307E+03 -0.68004617855E+03  0.10847506413E+04  0.46999998093E+01 0.  1.
       -5    1    3    3    0  502 -0.26624239865E+03 -0.80206860307E+03 -0.93084596038E+03  0.12572570743E+04  0.46999998093E+01 0. -1.
</event>
<event>
 5   0  0.6601906E-05  0.1697807E+04  0.7818609E-02  0.8762616E-01
       -1   -1    0    0    0  501  0.00000000000E+00  0.00000000000E+00  0.73808476788E+03  0.73808476790E+03  0.50400001928E-02 0.  1.
        1   -1    0    0  501    0  0.00000000000E+00  0.00000000000E+00 -0.97636139069E+03  0.97636139070E+03  0.50400001928E-02 0. -1.
    10030    2    1    2    0    0  0.00000000000E+00  0.00000000000E+00 -0.23827662281E+03  0.17144461586E+04  0.16978073748E+04 0.  0.
        1    1    3    3  502    0 -0.72881357678E+03  0.41680686920E+03  0.75514697943E+01  0.83961551953E+03  0.50400001928E-02 0.  1.
       -1    1    3    3    0  502  0.72881357678E+03 -0.41680686920E+03 -0.24582809260E+03  0.87483063907E+03  0.50400001928E-02 0. -1.
</event>
<event>
 5   0  0.1393870E-04  0.1693452E+04  0.7818609E-02  0.8765108E-01
        2   -1    0    0  501    0  0.00000000000E+00  0.00000000000E+00  0.16461830908E+04  0.16461830908E+04  0.25500000920E-02 0.  1.
       -2   -1    0    0    0  501  0.00000000000E+00  0.00000000000E+00 -0.43551937546E+03  0.43551937547E+03  0.25500000920E-02 0. -1.
    10030    2    1    2    0    0  0.00000000000E+00  0.00000000000E+00  0.12106637154E+04  0.20817024663E+04  0.16934516605E+04 0.  0.
        3    1    3    3  502    0 -0.62780320488E+03  0.50449775257E+03  0.28409623935E+03  0.85402899823E+03  0.10100000352E+00 0. -1.
       -3    1    3    3    0  502  0.62780320488E+03 -0.50449775257E+03  0.92656747603E+03  0.12276734681E+04  0.10100000352E+00 0.  1.
</event>
<event>
 5   0  0.1333546E-04  0.1701614E+04  0.7818609E-02  0.8760444E-01
       -2   -1    0    0    0  501  0.00000000000E+00  0.00000000000E+00  0.48746179093E+03  0.48746179093E+03  0.25500000920E-02 0.  1.
        2   -1    0    0  501    0  0.00000000000E+00  0.00000000000E+00 -0.14849839467E+04  0.14849839467E+04  0.25500000920E-02 0. -1.
    10030    2    1    2    0    0  0.00000000000E+00  0.00000000000E+00 -0.99752215575E+03  0.19724457376E+04  0.17016144500E+04 0.  0.
        5    1    3    3  502    0 -0.19625494094E+02 -0.26208697997E+03 -0.14367340164E+04  0.14605825786E+04  0.46999998093E+01 0. -1.
       -5    1    3    3    0  502  0.19625494094E+02  0.26208697997E+03  0.43921186060E+03  0.51186315904E+03  0.46999998093E+01 0.  1.
</event>
<event>
 5   0  0.6601906E-05  0.1700815E+04  0.7818609E-02  0.8760900E-01
        1   -1    0    0  501    0  0.00000000000E+00  0.00000000000E+00  0.14599845270E+04  0.14599845270E+04  0.50400001928E-02 0.  1.
       -1   -1    0    0    0  501  0.00000000000E+00  0.00000000000E+00 -0.49534290847E+03  0.49534290850E+03  0.50400001928E-02 0. -1.
    10030    2    1    2    0    0  0.00000000000E+00  0.00000000000E+00  0.96464161849E+03  0.19553274355E+04  0.17008150775E+04 0.  0.
        1    1    3    3  502    0 -0.66280864698E+02  0.59549083485E+03 -0.21146705677E+03  0.63539027656E+03  0.50400001928E-02 0. -1.
       -1    1    3    3    0  502  0.66280864698E+02 -0.59549083485E+03  0.11761086753E+04  0.13199371589E+04  0.50400001928E-02 0.  1.
</event>
<event>
 5   0  0.1269175E-04  0.1703470E+04  0.7818609E-02  0.8759388E-01
       -2   -1    0    0    0  501  0.00000000000E+00  0.00000000000E+00  0.34534268908E+03  0.34534268909E+03  0.25500000920E-02 0. -1.
        2   -1    0    0  501    0  0.00000000000E+00  0.00000000000E+00 -0.21006741509E+04  0.21006741509E+04  0.25500000920E-02 0.  1.
    10030    2    1    2    0    0  0.00000000000E+00  0.00000000000E+00 -0.17553314618E+04  0.24460168399E+04  0.17034699412E+04 0.  0.
        2    1    3    3  502    0 -0.18901035271E+03  0.10229521015E+03 -0.20610996786E+04  0.20722743806E+04  0.25500000920E-02 0.  1.
       -2    1    3    3    0  502  0.18901035271E+03 -0.10229521015E+03  0.30576821684E+03  0.37374245930E+03  0.25500000920E-02 0. -1.
</event>
<event>
 5   0  0.1333546E-04  0.1705755E+04  0.7818609E-02  0.8758089E-01
        2   -1    0    0  501    0  0.00000000000E+00  0.00000000000E+00  0.12250337054E+04  0.12250337054E+04  0.25500000920E-02 0.  1.
       -2   -1    0    0    0  501  0.00000000000E+00  0.00000000000E+00 -0.59377986461E+03  0.59377986461E+03  0.25500000920E-02 0. -1.
    10030    2    1    2    0    0  0.00000000000E+00  0.00000000000E+00  0.63125384082E+03  0.18188135700E+04  0.17057553726E+04 0.  0.
        5    1    3    3  502    0  0.42338488694E+03 -0.19229857189E+03 -0.44670374872E+03  0.64482542782E+03  0.46999998093E+01 0. -1.
       -5    1    3    3    0  502 -0.42338488694E+03  0.19229857189E+03  0.10779575895E+04  0.11739881422E+04  0.46999998093E+01 0.  1.
</event>
<event>
 5   0  0.6539134E-05  0.1705072E+04  0.7818609E-02  0.8758477E-01
        1   -1    0    0  501    0  0.00000000000E+00  0.00000000000E+00  0.89518474134E+03  0.89518474135E+03  0.50400001928E-02 0.  1.
       -1   -1    0    0    0  501  0.00000000000E+00  0.00000000000E+00 -0.81191910487E+03  0.81191910489E+03  0.50400001928E-02 0. -1.
    10030    2    1    2    0    0  0.00000000000E+00  0.00000000000E+00  0.83265636462E+02  0.17071038462E+04  0.17050719561E+04 0.  0.
        2    1    3    3  502    0 -0.76689836418E+03  0.88730570092E+02  0.40374237856E+03  0.87121416615E+03  0.25500000920E-02 0.  1.
       -2    1    3    3    0  502  0.76689836418E+03 -0.88730570092E+02 -0.32047674210E+03  0.83588968009E+03  0.25500000920E-02 0. -1.
</event>
<event>
 5   0  0.1333546E-04  0.1697147E+04  0.7818609E-02  0.8762993E-01
       -2   -1    0    0    0  501  0.00000000000E+00  0.00000000000E+00  0.12441626644E+04  0.12441626644E+04  0.25500000920E-02 0. -1.
        2   -1    0    0  501    0  0.00000000000E+00  0.00000000000E+00 -0.57876462292E+03  0.57876462293E+03  0.25500000920E-02 0.  1.
    10030    2    1    2    0    0  0.00000000000E+00  0.00000000000E+00  0.66539804151E+03  0.18229272874E+04  0.16971474130E+04 0.  0.
        5    1    3    3  502    0  0.44519571845E+03 -0.48267781203E+02 -0.44150161359E+03  0.62886784878E+03  0.46999998093E+01 0.  1.
       -5    1    3    3    0  502 -0.44519571845E+03  0.48267781203E+02  0.11068996551E+04  0.11940594386E+04  0.46999998093E+01 0. -1.
</event>
<event>
 5   0  0.6564887E-05  0.1702708E+04  0.7818609E-02  0.8759821E-01
       -1   -1    0    0    0  501  0.00000000000E+00  0.00000000000E+00  0.52139724023E+03  0.52139724025E+03  0.50400001928E-02 0.  1.
        1   -1    0    0  501    0  0.00000000000E+00  0.00000000000E+00 -0.13901182165E+04  0.13901182165E+04  0.50400001928E-02 0. -1.
    10030    2    1    2    0    0  0.00000000000E+00  0.00000000000E+00 -0.86872097631E+03  0.19115154568E+04  0.17027081978E+04 0.  0.
        4    1    3    3  502    0 -0.19130547209E+03  0.58029455581E+02 -0.13633935962E+04  0.13779727546E+04  0.12699999809E+01 0. -1.
       -4    1    3    3    0  502  0.19130547209E+03 -0.58029455581E+02  0.49467261985E+03  0.53354270223E+03  0.12699999809E+01 0.  1.
</event>
<event>
 5   0  0.6834837E-05  0.1705385E+04  0.7818609E-02  0.8758299E-01
        1   -1    0    0  501    0  0.00000000000E+00  0.00000000000E+00  0.88621254135E+03  0.88621254137E+03  0.50400001928E-02 0.  1.
       -1   -1    0    0    0  501  0.00000000000E+00  0.00000000000E+00 -0.82044069012E+03  0.82044069014E+03  0.50400001928E-02 0. -1.
    10030    2    1    2    0    0  0.00000000000E+00  0.00000000000E+00  0.65771851233E+02  0.17066532315E+04  0.17053853864E+04 0.  0.
        5    1    3    3  502    0 -0.58492618329E+03 -0.55983870650E+03  0.30048839153E+03  0.86363961271E+03  0.46999998093E+01 0.  1.
       -5    1    3    3    0  502  0.58492618329E+03  0.55983870650E+03 -0.23471654030E+03  0.84301361880E+03  0.46999998093E+01 0. -1.
</event>
<event>
 5   0  0.6834837E-05  0.1695605E+04  0.7818609E-02  0.8763875E-01
        1   -1    0    0  501    0  0.00000000000E+00  0.00000000000E+00  0.11582476670E+04  0.11582476670E+04  0.50400001928E-02 0.  1.
       -1   -1    0    0    0  501  0.00000000000E+00  0.00000000000E+00 -0.62056584121E+03  0.62056584123E+03  0.50400001928E-02 0. -1.
    10030    2    1    2    0    0  0.00000000000E+00  0.00000000000E+00  0.53768182581E+03  0.17788135083E+04  0.16956048335E+04 0.  0.
        5    1    3    3  502    0  0.23237952488E+03  0.80141739568E+03  0.42612060415E+03  0.93694767462E+03  0.46999998093E+01 0.  1.
       -5    1    3    3    0  502 -0.23237952488E+03 -0.80141739568E+03  0.11156122165E+03  0.84186583365E+03  0.46999998093E+01 0. -1.
</event>
<event>
 5   0  0.4720875E-05  0.1701856E+04  0.7818609E-02  0.8760307E-01
        3   -1    0    0  501    0  0.00000000000E+00  0.00000000000E+00  0.72557477165E+03  0.72557477868E+03  0.10100000352E+00 0.  1.
       -3   -1    0    0    0  501  0.00000000000E+00  0.00000000000E+00 -0.99793775314E+03  0.99793775825E+03  0.10100000352E+00 0. -1.
    10030    2    1    2    0    0  0.00000000000E+00  0.00000000000E+00 -0.27236298149E+03  0.17235125369E+04  0.17018560078E+04 0.  0.
        1    1    3    3  502    0  0.62777144985E+03 -0.27864253403E+03 -0.64490818048E+03  0.94214925373E+03  0.50400001928E-02 0. -1.
       -1    1    3    3    0  502 -0.62777144985E+03  0.27864253403E+03  0.37254519899E+03  0.78136328320E+03  0.50400001928E-02 0.  1.
</event>
<event>
 5   0  0.1393870E-04  0.1704038E+04  0.7818609E-02  0.8759065E-01
       -2   -1    0    0    0  501  0.00000000000E+00  0.00000000000E+00  0.32791286199E+03  0.32791286200E+03  0.25500000920E-02 0. -1.
        2   -1    0    0  501    0  0.00000000000E+00  0.00000000000E+00 -0.22138084724E+04  0.22138084724E+04  0.25500000920E-02 0.  1.
    10030    2    1    2    0    0  0.00000000000E+00  0.00000000000E+00 -0.18858956105E+04  0.25417213344E+04  0.17040378776E+04 0.  0.
        3    1    3    3  502    0  0.49076325926E+03 -0.62737129772E+03 -0.13941201613E+04  0.16056196175E+04  0.10100000352E+00 0.  1.
       -3    1    3    3    0  502 -0.49076325926E+03  0.62737129772E+03 -0.49177544916E+03  0.93610171693E+03  0.10100000352E+00 0. -1.
</event>
<event>
 5   0  0.6834837E-05  0.1698533E+04  0.7818609E-02  0.8762201E-01
       -1   -1    0    0    0  501  0.00000000000E+00  0.00000000000E+00  0.72746345095E+03  0.72746345097E+03  0.50400001928E-02 0. -1.
        1   -1    0    0  501    0  0.00000000000E+00  0.00000000000E+00 -0.99146405937E+03  0.99146405939E+03  0.50400001928E-02 0.  1.
    10030    2    1    2    0    0  0.00000000000E+00  0.00000000000E+00 -0.26400060842E+03  0.17189275104E+04  0.16985333275E+04 0.  0.
        5    1    3    3  502    0  0.19958212269E+03  0.62823155523E+03  0.40989502913E+03  0.77623703570E+03  0.46999998093E+01 0. -1.
       -5    1    3    3    0  502 -0.19958212269E+03 -0.62823155523E+03 -0.67389563756E+03  0.94269047465E+03  0.46999998093E+01 0.  1.
</event>
<event>
 5   0  0.6834837E-05  0.1701383E+04  0.7818609E-02  0.8760576E-01
        1   -1    0    0  501    0  0.00000000000E+00  0.00000000000E+00  0.50863301939E+03  0.50863301941E+03  0.50400001928E-02 0.  1.
       -1   -1    0    0    0  501  0.00000000000E+00  0.00000000000E+00 -0.14227865653E+04  0.14227865653E+04  0.50400001928E-02 0. -1.
    10030    2    1    2    0    0  0.00000000000E+00  0.00000000000E+00 -0.91415354595E+03  0.19314195848E+04  0.17013832334E+04 0.  0.
        5    1    3    3  502    0 -0.27516145947E+03 -0.38274595671E+03  0.34679448109E+03  0.58523226010E+03  0.46999998093E+01 0.  1.
       -5    1    3    3    0  502  0.27516145947E+03  0.38274595671E+03 -0.12609480270E+04  0.13461873246E+04  0.46999998093E+01 0. -1.
</event>
<event>
 5   0  0.1393870E-04  0.1704000E+04  0.7818609E-02  0.8759086E-01
       -2   -1    0    0    0  501  0.00000000000E+00  0.00000000000E+00  0.50003359136E+03  0.50003359137E+03  0.25500000920E-02 0.  1.
        2   -1    0    0  501    0  0.00000000000E+00  0.00000000000E+00 -0.14517112199E+04  0.14517112199E+04  0.25500000920E-02 0. -1.
    10030    2    1    2    0    0  0.00000000000E+00  0.00000000000E+00 -0.95167762849E+03  0.19517448112E+04  0.17040004400E+04 0.  0.
        3    1    3    3  502    0  0.31679435289E+03  0.75798005602E+03 -0.73453453193E+03  0.11020133466E+04  0.10100000352E+00 0.  1.
       -3    1    3    3    0  502 -0.31679435289E+03 -0.75798005602E+03 -0.21714309656E+03  0.84973146460E+03  0.10100000352E+00 0. -1.
</event>
<event>
 5   0  0.1255362E-04  0.1686566E+04  0.7818609E-02  0.8769063E-01
       -2   -1    0    0    0  501  0.00000000000E+00  0.00000000000E+00  0.52431260421E+03  0.52431260422E+03  0.25500000920E-02 0. -1.
        2   -1    0    0  501    0  0.00000000000E+00  0.00000000000E+00 -0.13563027512E+04  0.13563027512E+04  0.25500000920E-02 0.  1.
    10030    2    1    2    0    0  0.00000000000E+00  0.00000000000E+00 -0.83199014701E+03  0.18806153554E+04  0.16865664856E+04 0.  0.
        1    1    3    3  502    0 -0.33757981108E+03 -0.54645341531E+03 -0.10252636859E+04  0.12098500278E+04  0.50400001928E-02 0.  1.
       -1    1    3    3    0  502  0.33757981108E+03  0.54645341531E+03  0.19327353892E+03  0.67076532769E+03  0.50400001928E-02 0. -1.
</event>
<event>
 5   0  0.1285639E-04  0.1701216E+04  0.7818609E-02  0.8760671E-01
        2   -1    0    0  501    0  0.00000000000E+00  0.00000000000E+00  0.12475874726E+04  0.12475874726E+04  0.25500000920E-02 0.  1.
       -2   -1    0    0    0  501  0.00000000000E+00  0.00000000000E+00 -0.57994627789E+03  0.57994627789E+03  0.25500000920E-02 0. -1.
    10030    2    1    2    0    0  0.00000000000E+00  0.00000000000E+00  0.66764119471E+03  0.18275337505E+04  0.17012156960E+04 0.  0.
        4    1    3    3  502    0 -0.29721066878E+03 -0.74740698904E+03  0.36540580215E+02  0.80516347148E+03  0.12699999809E+01 0. -1.
       -4    1    3    3    0  502  0.29721066878E+03  0.74740698904E+03  0.63110061450E+03  0.10223702790E+04  0.12699999809E+01 0.  1.
</event>
<event>
 5   0  0.6539134E-05  0.1710620E+04  0.7818609E-02  0.8755331E-01
       -1   -1    0    0    0  501  0.00000000000E+00  0.00000000000E+00  0.73293351261E+03  0.73293351262E+03  0.50400001928E-02 0. -1.
        1   -1    0    0  501    0  0.00000000000E+00  0.00000000000E+00 -0.99811927756E+03  0.99811927757E+03  0.50400001928E-02 0.  1.
    10030    2    1    2    0    0  0.00000000000E+00  0.00000000000E+00 -0.26518576495E+03  0.17310527902E+04  0.17106198504E+04 0.  0.
        2    1    3    3  502    0 -0.42058737826E+03 -0.27419599503E+03 -0.83330736541E+03  0.97287118968E+03  0.25500000920E-02 0.  1.
       -2    1    3    3    0  502  0.42058737826E+03  0.27419599503E+03  0.56812160046E+03  0.75818160052E+03  0.25500000920E-02 0. -1.
</event>
<event>
 5   0  0.1333546E-04  0.1702165E+04  0.7818609E-02  0.8760131E-01
        2   -1    0    0  501    0  0.00000000000E+00  0.00000000000E+00  0.10706739373E+04  0.10706739373E+04  0.25500000920E-02 0. -1.
       -2   -1    0    0    0  501  0.00000000000E+00  0.00000000000E+00 -0.67652832735E+03  0.67652832736E+03  0.25500000920E-02 0.  1.
    10030    2    1    2    0    0  0.00000000000E+00  0.00000000000E+00  0.39414560993E+03  0.17472022646E+04  0.17021647957E+04 0.  0.
        5    1    3    3  502    0 -0.51064704087E+03 -0.29827818508E+03 -0.43115770100E+03  0.73188067960E+03  0.46999998093E+01 0.  1.
       -5    1    3    3    0  502  0.51064704087E+03  0.29827818508E+03  0.82530331093E+03  0.10153215850E+04  0.46999998093E+01 0. -1.
</event>
<event>
 5   0  0.6564887E-05  0.1703976E+04  0.7818609E-02  0.8759100E-01
       -1   -1    0    0    0  501  0.00000000000E+00  0.00000000000E+00  0.41764531479E+03  0.41764531482E+03  0.50400001928E-02 0. -1.
        1   -1    0    0  501    0  0.00000000000E+00  0.00000000000E+00 -0.17380392269E+04  0.17380392269E+04  0.50400001928E-02 0.  1.
    10030    2    1    2    0    0  0.00000000000E+00  0.00000000000E+00 -0.13203939121E+04  0.21556845417E+04  0.17039764553E+04 0.  0.
        4    1    3    3  502    0 -0.20059952480E+03 -0.12188845450E+03 -0.16963249472E+04  0.17124885121E+04  0.12699999809E+01 0.  1.
       -4    1    3    3    0  502  0.20059952480E+03  0.12188845450E+03  0.37593103506E+03  0.44319602966E+03  0.12699999809E+01 0. -1.
</event>
<event>
 5   0  0.1255362E-04  0.1698027E+04  0.7818609E-02  0.8762490E-01
        2   -1    0    0  501    0  0.00000000000E+00  0.00000000000E+00  0.79234341227E+03  0.79234341228E+03  0.25500000920E-02 0. -1.
       -2   -1    0    0    0  501  0.00000000000E+00  0.00000000000E+00 -0.90973679844E+03  0.90973679844E+03  0.25500000920E-02 0.  1.
    10030    2    1    2    0    0  0.00000000000E+00  0.00000000000E+00 -0.11739338616E+03  0.17020802107E+04  0.16980270424E+04 0.  0.
        1    1    3    3  502    0 -0.18286271208E+03  0.48212107511E+03  0.61740902474E+03  0.80440873093E+03  0.50400001928E-02 0. -1.
       -1    1    3    3    0  502  0.18286271208E+03 -0.48212107511E+03 -0.73480241090E+03  0.89767147979E+03  0.50400001928E-02 0.  1.
</event>
<event>
 5   0  0.4720875E-05  0.1699504E+04  0.7818609E-02  0.8761647E-01
       -4   -1    0    0    0  501  0.00000000000E+00  0.00000000000E+00  0.41884740939E+03  0.41884933479E+03  0.12699999809E+01 0.  1.
        4   -1    0    0  501    0  0.00000000000E+00  0.00000000000E+00 -0.17239593741E+04  0.17239598419E+04  0.12699999809E+01 0. -1.
    10030    2    1    2    0    0  0.00000000000E+00  0.00000000000E+00 -0.13051119647E+04  0.21428091767E+04  0.16995040239E+04 0.  0.
        4    1    3    3  502    0  0.30332558081E+03 -0.40434434546E+03 -0.15137927255E+04  0.15959545064E+04  0.12699999809E+01 0. -1.
       -4    1    3    3    0  502 -0.30332558081E+03  0.40434434546E+03  0.20868076075E+03  0.54685467036E+03  0.12699999809E+01 0.  1.
</event>
<event>
 5   0  0.1269175E-04  0.1697228E+04  0.7818609E-02  0.8762947E-01
       -2   -1    0    0    0  501  0.00000000000E+00  0.00000000000E+00  0.26300456831E+03  0.26300456832E+03  0.25500000920E-02 0.  1.
        2   -1    0    0  501    0  0.00000000000E+00  0.00000000000E+00 -0.27381501201E+04  0.27381501201E+04  0.25500000920E-02 0. -1.
    10030    2    1    2    0    0  0.00000000000E+00  0.00000000000E+00 -0.24751455518E+04  0.30011546884E+04  0.16972283173E+04 0.  0.
        2    1    3    3  502    0 -0.77790213019E+03 -0.11016715777E+03 -0.67040932583E+03  0.10328200187E+04  0.25500000920E-02 0.  1.
       -2    1    3    3    0  502  0.77790213019E+03  0.11016715777E+03 -0.18047362259E+04  0.19683346697E+04  0.25500000920E-02 0. -1.
</event>
<event>
 5   0  0.6601906E-05  0.1718176E+04  0.7818609E-02  0.8751065E-01
        1   -1    0    0  501    0  0.00000000000E+00  0.00000000000E+00  0.21453013925E+04  0.21453013925E+04  0.50400001928E-02 0. -1.
       -1   -1    0    0    0  501  0.00000000000E+00  0.00000000000E+00 -0.34402254817E+03  0.34402254821E+03  0.50400001928E-02 0.  1.
    10030    2    1    2    0    0  0.00000000000E+00  0.00000000000E+00  0.18012788443E+04  0.24893239407E+04  0.17181758370E+04 0.  0.
        1    1    3    3  502    0 -0.40729809376E+03  0.75092472862E+03  0.10322537168E+04  0.13398982876E+04  0.50400001928E-02 0. -1.
       -1    1    3    3    0  502  0.40729809376E+03 -0.75092472862E+03  0.76902512749E+03  0.11494256531E+04  0.50400001928E-02 0.  1.
</event>
<event>
 5   0  0.6564887E-05  0.1708366E+04  0.7818609E-02  0.8756607E-01
        1   -1    0    0  501    0  0.00000000000E+00  0.00000000000E+00  0.14896997303E+04  0.14896997303E+04  0.50400001928E-02 0.  1.
       -1   -1    0    0    0  501  0.00000000000E+00  0.00000000000E+00 -0.48978226300E+03  0.48978226302E+03  0.50400001928E-02 0. -1.
    10030    2    1    2    0    0  0.00000000000E+00  0.00000000000E+00  0.99991746730E+03  0.19794819933E+04  0.17083658919E+04 0.  0.
        4    1    3    3  502    0 -0.28322404739E+03 -0.80117744550E+03  0.60047701130E+03  0.10405168976E+04  0.12699999809E+01 0.  1.
       -4    1    3    3    0  502  0.28322404739E+03  0.80117744550E+03  0.39944045600E+03  0.93896509572E+03  0.12699999809E+01 0. -1.
</event>
<event>
 5   0  0.1269175E-04  0.1697359E+04  0.7818609E-02  0.8762872E-01
       -2   -1    0    0    0  501  0.00000000000E+00  0.00000000000E+00  0.72858148654E+03  0.72858148654E+03  0.25500000920E-02 0.  1.
        2   -1    0    0  501    0  0.00000000000E+00  0.00000000000E+00 -0.98857431661E+03  0.98857431662E+03  0.25500000920E-02 0. -1.
    10030    2    1    2    0    0  0.00000000000E+00  0.00000000000E+00 -0.25999283008E+03  0.17171558032E+04  0.16973590606E+04 0.  0.
        2    1    3    3  502    0 -0.64126487166E+03 -0.74317121381E+02 -0.68734233257E+03  0.94296508541E+03  0.25500000920E-02 0. -1.
       -2    1    3    3    0  502  0.64126487166E+03  0.74317121381E+02  0.42734950249E+03  0.77419071775E+03  0.25500000920E-02 0.  1.
</event>
<event>
 5   0  0.1333546E-04  0.1685112E+04  0.7818609E-02  0.8769901E-01
        2   -1    0    0  501    0  0.00000000000E+00  0.00000000000E+00  0.87113256612E+03  0.87113256612E+03  0.25500000920E-02 0.  1.
       -2   -1    0    0    0  501  0.00000000000E+00  0.00000000000E+00 -0.81491702647E+03  0.81491702648E+03  0.25500000920E-02 0. -1.
    10030    2    1    2    0    0  0.00000000000E+00  0.00000000000E+00  0.56215539648E+02  0.16860495926E+04  0.16851121748E+04 0.  0.
        5    1    3    3  502    0  0.72527726607E+03 -0.40899263507E+03  0.15692946934E+03  0.84731991394E+03  0.46999998093E+01 0.  1.
       -5    1    3    3    0  502 -0.72527726607E+03  0.40899263507E+03 -0.10071392969E+03  0.83872967865E+03  0.46999998093E+01 0. -1.
</event>
<event>
 5   0  0.6564887E-05  0.1701941E+04  0.7818609E-02  0.8760258E-01
       -1   -1    0    0    0  501  0.00000000000E+00  0.00000000000E+00  0.88789121250E+03  0.88789121251E+03  0.50400001928E-02 0.  1.
        1   -1    0    0  501    0  0.00000000000E+00  0.00000000000E+00 -0.81558542893E+03  0.81558542895E+03  0.50400001928E-02 0. -1.
    10030    2    1    2    0    0  0.00000000000E+00  0.00000000000E+00  0.72305783567E+02  0.17034766415E+04  0.17019414037E+04 0.  0.
        4    1    3    3  502    0 -0.39884256862E+03 -0.77202151389E+02 -0.71226083686E+03  0.81997114544E+03  0.12699999809E+01 0. -1.
       -4    1    3    3    0  502  0.39884256862E+03  0.77202151389E+02  0.78456662043E+03  0.88350549603E+03  0.12699999809E+01 0.  1.
</event>
<event>
 5   0  0.6539134E-05  0.1714802E+04  0.7818609E-02  0.8752967E-01
       -1   -1    0    0    0  501  0.00000000000E+00  0.00000000000E+00  0.99069585896E+03  0.99069585898E+03  0.50400001928E-02 0. -1.
        1   -1    0    0  501    0  0.00000000000E+00  0.00000000000E+00 -0.74204028911E+03  0.74204028913E+03  0.50400001928E-02 0.  1.
    10030    2    1    2    0    0  0.00000000000E+00  0.00000000000E+00  0.24865556985E+03  0.17327361481E+04  0.17148017281E+04 0.  0.
        2    1    3    3  502    0 -0.19779549174E+03 -0.76960712487E+03 -0.20109331776E+03  0.81966865601E+03  0.25500000920E-02 0.  1.
       -2    1    3    3    0  502  0.19779549174E+03  0.76960712487E+03  0.44974888761E+03  0.91306749209E+03  0.25500000920E-02 0. -1.
</event>
<event>
 5   0  0.1285639E-04  0.1668556E+04  0.7818609E-02  0.8779504E-01
       -2   -1    0    0    0  501  0.00000000000E+00  0.00000000000E+00  0.10220650293E+04  0.10220650293E+04  0.25500000920E-02 0.  1.
        2   -1    0    0  501    0  0.00000000000E+00  0.00000000000E+00 -0.68099395572E+03  0.68099395572E+03  0.25500000920E-02 0. -1.
    10030    2    1    2    0    0  0.00000000000E+00  0.00000000000E+00  0.34107107355E+03  0.17030589850E+04  0.16685563908E+04 0.  0.
        4    1    3    3  502    0 -0.16084010269E+03 -0.81627807315E+03  0.23377692927E+03  0.86419482577E+03  0.12699999809E+01 0.  1.
       -4    1    3    3    0  502  0.16084010269E+03  0.81627807315E+03  0.10729414428E+03  0.83886415922E+03  0.12699999809E+01 0. -1.
</event>
<event>
 5   0  0.4720875E-05  0.1702293E+04  0.7818609E-02  0.8760058E-01
       -3   -1    0    0    0  501  0.00000000000E+00  0.00000000000E+00  0.20417660741E+04  0.20417660766E+04  0.10100000352E+00 0.  1.
        3   -1    0    0  501    0  0.00000000000E+00  0.00000000000E+00 -0.35481558153E+03  0.35481559591E+03  0.10100000352E+00 0. -1.
    10030    2    1    2    0    0  0.00000000000E+00  0.00000000000E+00  0.16869504926E+04  0.23965816725E+04  0.17022930854E+04 0.  0.
        2    1    3    3  502    0 -0.56181880744E+03 -0.63692257975E+03  0.92236151842E+03  0.12538187731E+04  0.25500000920E-02 0.  1.
       -2    1    3    3    0  502  0.56181880744E+03  0.63692257975E+03  0.76458897416E+03  0.11427628995E+04  0.25500000920E-02 0. -1.
</event>
<event>
 5   0  0.1285639E-04  0.1696187E+04  0.7818609E-02  0.8763542E-01
        2   -1    0    0  501    0  0.00000000000E+00  0.00000000000E+00  0.16165341550E+04  0.16165341550E+04  0.25500000920E-02 0. -1.
       -2   -1    0    0    0  501  0.00000000000E+00  0.00000000000E+00 -0.44494097819E+03  0.44494097820E+03  0.25500000920E-02 0.  1.
    10030    2    1    2    0    0  0.00000000000E+00  0.00000000000E+00  0.11715931768E+04  0.20614751332E+04  0.16961866504E+04 0.  0.
        4    1    3    3  502    0 -0.37082089930E+03 -0.40098020246E+03  0.13743456132E+04  0.14788917268E+04  0.12699999809E+01 0. -1.
       -4    1    3    3    0  502  0.37082089930E+03  0.40098020246E+03 -0.20275243635E+03  0.58258340645E+03  0.12699999809E+01 0.  1.
</event>
<event>
 5   0  0.1285639E-04  0.1678345E+04  0.7818609E-02  0.8773812E-01
       -2   -1    0    0    0  501  0.00000000000E+00  0.00000000000E+00  0.29490389882E+03  0.29490389884E+03  0.25500000920E-02 0.  1.
        2   -1    0    0  501    0  0.00000000000E+00  0.00000000000E+00 -0.23879328089E+04  0.23879328089E+04  0.25500000920E-02 0. -1.
    10030    2    1    2    0    0  0.00000000000E+00  0.00000000000E+00 -0.20930289101E+04  0.26828367078E+04  0.16783452511E+04 0.  0.
        4    1    3    3  502    0 -0.22251100871E+03 -0.79057887078E+03 -0.13219162111E+04  0.15562744559E+04  0.12699999809E+01 0.  1.
       -4    1    3    3    0  502  0.22251100871E+03  0.79057887078E+03 -0.77111269897E+03  0.11265622519E+04  0.12699999809E+01 0. -1.
</event>
<event>
 5   0  0.1393870E-04  0.1711917E+04  0.7818609E-02  0.8754597E-01
        2   -1    0    0  501    0  0.00000000000E+00  0.00000000000E+00  0.20446534826E+04  0.20446534826E+04  0.25500000920E-02 0.  1.
       -2   -1    0    0    0  501  0.00000000000E+00  0.00000000000E+00 -0.35833200375E+03  0.35833200375E+03  0.25500000920E-02 0. -1.
    10030    2    1    2    0    0  0.00000000000E+00  0.00000000000E+00  0.16863214789E+04  0.24029854864E+04  0.17119167963E+04 0.  0.
        3    1    3    3  502    0  0.53286006010E+02 -0.47982524569E+03  0.18353093133E+04  0.18977439106E+04  0.10100000352E+00 0.  1.
       -3    1    3    3    0  502 -0.53286006010E+02  0.47982524569E+03 -0.14898783439E+03  0.50524157572E+03  0.10100000352E+00 0. -1.
</event>
<event>
 5   0  0.6539134E-05  0.1699285E+04  0.7818609E-02  0.8761772E-01
        1   -1    0    0  501    0  0.00000000000E+00  0.00000000000E+00  0.86758270826E+03  0.86758270827E+03  0.50400001928E-02 0. -1.
       -1   -1    0    0    0  501  0.00000000000E+00  0.00000000000E+00 -0.83207347290E+03  0.83207347291E+03  0.50400001928E-02 0.  1.
    10030    2    1    2    0    0  0.00000000000E+00  0.00000000000E+00  0.35509235358E+02  0.16996561812E+04  0.16992852110E+04 0.  0.
        2    1    3    3  502    0 -0.16087482451E+02 -0.15250085607E+03 -0.81811749993E+03  0.83236504125E+03  0.25500000920E-02 0.  1.
       -2    1    3    3    0  502  0.16087482451E+02  0.15250085607E+03  0.85362673529E+03  0.86729113993E+03  0.25500000920E-02 0. -1.
</event>
<event>
 5   0  0.6601906E-05  0.1709477E+04  0.7818609E-02  0.8755978E-01
       -1   -1    0    0    0  501  0.00000000000E+00  0.00000000000E+00  0.90486773430E+03  0.90486773432E+03  0.50400001928E-02 0.  1.
        1   -1    0    0  501    0  0.00000000000E+00  0.00000000000E+00 -0.80738601256E+03  0.80738601257E+03  0.50400001928E-02 0. -1.
    10030    2    1    2    0    0  0.00000000000E+00  0.00000000000E+00  0.97481721743E+02  0.17122537469E+04  0.17094765888E+04 0.  0.
        1    1    3    3  502    0 -0.23925856061E+03  0.11363718873E+03 -0.76524133542E+03  0.80978538574E+03  0.50400001928E-02 0. -1.
       -1    1    3    3    0  502  0.23925856061E+03 -0.11363718873E+03  0.86272305717E+03  0.90246836115E+03  0.50400001928E-02 0.  1.
</event>
<event>
 5   0  0.6834837E-05  0.1710115E+04  0.7818609E-02  0.8755617E-01
       -1   -1    0    0    0  501  0.00000000000E+00  0.00000000000E+00  0.73800615969E+03  0.73800615971E+03  0.50400001928E-02 0.  1.
        1   -1    0    0  501    0  0.00000000000E+00  0.00000000000E+00 -0.99067328197E+03  0.99067328199E+03  0.50400001928E-02 0. -1.
    10030    2    1    2    0    0  0.00000000000E+00  0.00000000000E+00 -0.25266712228E+03  0.17286794417E+04  0.17101145978E+04 0.  0.
        5    1    3    3  502    0  0.28983286896E+03 -0.68633557839E+03  0.29779401175E+03  0.80234841654E+03  0.46999998093E+01 0.  1.
       -5    1    3    3    0  502 -0.28983286896E+03  0.68633557839E+03 -0.55046113403E+03  0.92633102516E+03  0.46999998093E+01 0. -1.
</event>
<event>
 5   0  0.1255362E-04  0.1687037E+04  0.7818609E-02  0.8768792E-01
       -2   -1    0    0    0  501  0.00000000000E+00  0.00000000000E+00  0.55701759093E+03  0.55701759093E+03  0.25500000920E-02 0.  1.
        2   -1    0    0  501    0  0.00000000000E+00  0.00000000000E+00 -0.12773805829E+04  0.12773805829E+04  0.25500000920E-02 0. -1.
    10030    2    1    2    0    0  0.00000000000E+00  0.00000000000E+00 -0.72036299198E+03  0.18343981738E+04  0.16870369943E+04 0.  0.
        1    1    3    3  502    0 -0.62219011858E+02 -0.14579400027E+02  0.55438168703E+03  0.55805270296E+03  0.50400001928E-02 0.  1.
       -1    1    3    3    0  502  0.62219011858E+02  0.14579400027E+02 -0.12747446790E+04  0.12763454709E+04  0.50400001928E-02 0. -1.
</event>
<event>
 5   0  0.4720875E-05  0.1701318E+04  0.7818609E-02  0.8760613E-01
        4   -1    0    0  501    0  0.00000000000E+00  0.00000000000E+00  0.46497097477E+03  0.46497270918E+03  0.12699999809E+01 0. -1.
       -4   -1    0    0    0  501  0.00000000000E+00  0.00000000000E+00 -0.15562657528E+04  0.15562662710E+04  0.12699999809E+01 0.  1.
    10030    2    1    2    0    0  0.00000000000E+00  0.00000000000E+00 -0.10912947781E+04  0.20212389802E+04  0.17013179369E+04 0.  0.
        2    1    3    3  502    0 -0.12068565270E+03 -0.31111989880E+03 -0.14752560260E+04  0.15125280032E+04  0.25500000920E-02 0.  1.
       -2    1    3    3    0  502  0.12068565270E+03  0.31111989880E+03  0.38396124794E+03  0.50871097701E+03  0.25500000920E-02 0. -1.
</event>
<event>
 5   0  0.1285639E-04  0.1701451E+04  0.7818609E-02  0.8760537E-01
       -2   -1    0    0    0  501  0.00000000000E+00  0.00000000000E+00  0.90721622915E+03  0.90721622915E+03  0.25500000920E-02 0. -1.
        2   -1    0    0  501    0  0.00000000000E+00  0.00000000000E+00 -0.79775254343E+03  0.79775254343E+03  0.25500000920E-02 0.  1.
    10030    2    1    2    0    0  0.00000000000E+00  0.00000000000E+00  0.10946368572E+03  0.17049687726E+04  0.17014512091E+04 0.  0.
        4    1    3    3  502    0 -0.46081053667E+03 -0.44677960062E+03 -0.50478985376E+03  0.81656155408E+03  0.12699999809E+01 0.  1.
       -4    1    3    3    0  502  0.46081053667E+03  0.44677960062E+03  0.61425353947E+03  0.88840721851E+03  0.12699999809E+01 0. -1.
</event>
<event>
 5   0  0.6834837E-05  0.1715235E+04  0.7818609E-02  0.8752723E-01
       -1   -1    0    0    0  501  0.00000000000E+00  0.00000000000E+00  0.35119466140E+03  0.35119466144E+03  0.50400001928E-02 0. -1.
        1   -1    0    0  501    0  0.00000000000E+00  0.00000000000E+00 -0.20943023619E+04  0.20943023619E+04  0.50400001928E-02 0.  1.
    10030    2    1    2    0    0  0.00000000000E+00  0.00000000000E+00 -0.17431077005E+04  0.24454970234E+04  0.17152350380E+04 0.  0.
        5    1    3    3  502    0  0.55910231584E+03 -0.55792319021E+02  0.52193267048E+02  0.56431764952E+03  0.46999998093E+01 0. -1.
       -5    1    3    3    0  502 -0.55910231584E+03  0.55792319021E+02 -0.17953009676E+04  0.18811793739E+04  0.46999998093E+01 0.  1.
</event>
<event>
 5   0  0.6601906E-05  0.1702667E+04  0.7818609E-02  0.8759844E-01
       -1   -1    0    0    0  501  0.00000000000E+00  0.00000000000E+00  0.19933227994E+04  0.19933227994E+04  0.50400001928E-02 0.  1.
        1   -1    0    0  501    0  0.00000000000E+00  0.00000000000E+00 -0.36359846681E+03  0.36359846684E+03  0.50400001928E-02 0. -1.
    10030    2    1    2    0    0  0.00000000000E+00  0.00000000000E+00  0.16297243326E+04  0.23569212662E+04  0.17026674529E+04 0.  0.
        1    1    3    3  502    0 -0.25335971986E+03 -0.79658994992E+03  0.59156199146E+03  0.10240567786E+04  0.50400001928E-02 0. -1.
       -1    1    3    3    0  502  0.25335971986E+03  0.79658994992E+03  0.10381623411E+04  0.13328644877E+04  0.50400001928E-02 0.  1.
</event>
<event>
 5   0  0.6539134E-05  0.1697263E+04  0.7818609E-02  0.8762927E-01
       -1   -1    0    0    0  501  0.00000000000E+00  0.00000000000E+00  0.60629645658E+03  0.60629645660E+03  0.50400001928E-02 0.  1.
        1   -1    0    0  501    0  0.00000000000E+00  0.00000000000E+00 -0.11878268688E+04  0.11878268688E+04  0.50400001928E-02 0. -1.
    10030    2    1    2    0    0  0.00000000000E+00  0.00000000000E+00 -0.58153041222E+03  0.17941233254E+04  0.16972627629E+04 0.  0.
        2    1    3    3  502    0 -0.43332293312E+03 -0.70028914665E+03 -0.74126545018E+02  0.82684242632E+03  0.25500000920E-02 0.  1.
       -2    1    3    3    0  502  0.43332293312E+03  0.70028914665E+03 -0.50740386721E+03  0.96728089909E+03  0.25500000920E-02 0. -1.
</event>
<event>
 5   0  0.6539134E-05  0.1700818E+04  0.7818609E-02  0.8760898E-01
       -1   -1    0    0    0  501  0.00000000000E+00  0.00000000000E+00  0.22824196057E+04  0.22824196057E+04  0.50400001928E-02 0. -1.
        1   -1    0    0  501    0  0.00000000000E+00  0.00000000000E+00 -0.31685474012E+03  0.31685474016E+03  0.50400001928E-02 0.  1.
    10030    2    1    2    0    0  0.00000000000E+00  0.00000000000E+00  0.19655648655E+04  0.25992743458E+04  0.17008180044E+04 0.  0.
        2    1    3    3  502    0  0.20576016998E+03  0.47989987547E+03  0.20085946361E+04  0.20753538374E+04  0.25500000920E-02 0. -1.
       -2    1    3    3    0  502 -0.20576016998E+03 -0.47989987547E+03 -0.43029770563E+02  0.52392050847E+03  0.25500000920E-02 0.  1.
</event>
<event>
 5   0  0.6834837E-05  0.1701808E+04  0.7818609E-02  0.8760334E-01
       -1   -1    0    0    0  501  0.00000000000E+00  0.00000000000E+00  0.73884571340E+03  0.73884571341E+03  0.50400001928E-02 0.  1.
        1   -1    0    0  501    0  0.00000000000E+00  0.00000000000E+00 -0.97995757233E+03  0.97995757235E+03  0.50400001928E-02 0. -1.
    10030    2    1    2    0    0  0.00000000000E+00  0.00000000000E+00 -0.24111185894E+03  0.17188032858E+04  0.17018078054E+04 0.  0.
        5    1    3    3  502    0 -0.58303560039E+03  0.59495497742E+03 -0.29582114935E+03  0.88398765765E+03  0.46999998093E+01 0.  1.
       -5    1    3    3    0  502  0.58303560039E+03 -0.59495497742E+03  0.54709290412E+02  0.83481562811E+03  0.46999998093E+01 0. -1.
</event>
<event>
 5   0  0.1255362E-04  0.1701163E+04  0.7818609E-02  0.8760701E-01
        2   -1    0    0  501    0  0.00000000000E+00  0.00000000000E+00  0.22482293187E+04  0.22482293187E+04  0.25500000920E-02 0. -1.
       -2   -1    0    0    0  501  0.00000000000E+00  0.00000000000E+00 -0.32180396592E+03  0.32180396593E+03  0.25500000920E-02 0.  1.
    10030    2    1    2    0    0  0.00000000000E+00  0.00000000000E+00  0.19264253527E+04  0.25700332846E+04  0.17011632621E+04 0.  0.
        1    1    3    3  502    0 -0.38313156218E+03  0.69869008672E+03  0.14127250122E+04  0.16219585665E+04  0.50400001928E-02 0. -1.
       -1    1    3    3    0  502  0.38313156218E+03 -0.69869008672E+03  0.51370034050E+03  0.94807471809E+03  0.50400001928E-02 0.  1.
</event>
<event>
 5   0  0.6564887E-05  0.1701006E+04  0.7818609E-02  0.8760791E-01
        1   -1    0    0  501    0  0.00000000000E+00  0.00000000000E+00  0.10131163662E+04  0.10131163662E+04  0.50400001928E-02 0. -1.
       -1   -1    0    0    0  501  0.00000000000E+00  0.00000000000E+00 -0.71399041658E+03  0.71399041660E+03  0.50400001928E-02 0.  1.
    10030    2    1    2    0    0  0.00000000000E+00  0.00000000000E+00  0.29912594961E+03  0.17271067828E+04  0.17010060275E+04 0.  0.
        4    1    3    3  502    0 -0.54746450329E+03 -0.64091558664E+03  0.26472106770E+03  0.88349817665E+03  0.12699999809E+01 0. -1.
       -4    1    3    3    0  502  0.54746450329E+03  0.64091558664E+03  0.34404881905E+02  0.84360860614E+03  0.12699999809E+01 0.  1.
</event>
<event>
 5   0  0.6601906E-05  0.1700943E+04  0.7818609E-02  0.8760827E-01
       -1   -1    0    0    0  501  0.00000000000E+00  0.00000000000E+00  0.34762313558E+03  0.34762313562E+03  0.50400001928E-02 0. -1.
        1   -1    0    0  501    0  0.00000000000E+00  0.00000000000E+00 -0.20807075122E+04  0.20807075122E+04  0.50400001928E-02 0.  1.
    10030    2    1    2    0    0  0.00000000000E+00  0.00000000000E+00 -0.17330843766E+04  0.24283306478E+04  0.17009433496E+04 0.  0.
        1    1    3    3  502    0  0.22428250313E+02  0.58548367110E+03  0.13521885001E+02  0.58606910594E+03  0.50400001928E-02 0. -1.
       -1    1    3    3    0  502 -0.22428250313E+02 -0.58548367110E+03 -0.17466062616E+04  0.18422615419E+04  0.50400001928E-02 0.  1.
</event>
<event>
 5   0  0.1285639E-04  0.1697445E+04  0.7818609E-02  0.8762823E-01
       -2   -1    0    0    0  501  0.00000000000E+00  0.00000000000E+00  0.79260561370E+03  0.79260561371E+03  0.25500000920E-02 0. -1.
        2   -1    0    0  501    0  0.00000000000E+00  0.00000000000E+00 -0.90881209299E+03  0.90881209299E+03  0.25500000920E-02 0.  1.
    10030    2    1    2    0    0  0.00000000000E+00  0.00000000000E+00 -0.11620647928E+03  0.17014177067E+04  0.16974446285E+04 0.  0.
        4    1    3    3  502    0 -0.66688923686E+02  0.76393610815E+03  0.30645420993E+03  0.82580965456E+03  0.12699999809E+01 0. -1.
       -4    1    3    3    0  502  0.66688923686E+02 -0.76393610815E+03 -0.42266068921E+03  0.87560805214E+03  0.12699999809E+01 0.  1.
</event>
<event>
 5   0  0.6834837E-05  0.1769684E+04  0.7818609E-02  0.8722589E-01
       -1   -1    0    0    0  501  0.00000000000E+00  0.00000000000E+00  0.45184492796E+03  0.45184492799E+03  0.50400001928E-02 0.  1.
        1   -1    0    0  501    0  0.00000000000E+00  0.00000000000E+00 -0.17327748613E+04  0.17327748613E+04  0.50400001928E-02 0. -1.
    10030    2    1    2    0    0  0.00000000000E+00  0.00000000000E+00 -0.12809299333E+04  0.21846197892E+04  0.17696841892E+04 0.  0.
        5    1    3    3  502    0 -0.34235570348E+03  0.40051304085E+02 -0.16464713263E+04  0.16821716479E+04  0.46999998093E+01 0. -1.
       -5    1    3    3    0  502  0.34235570348E+03 -0.40051304085E+02  0.36554139305E+03  0.50244814130E+03  0.46999998093E+01 0.  1.
</event>
<event>
 5   0  0.6834837E-05  0.1692438E+04  0.7818609E-02  0.8765689E-01
       -1   -1    0    0    0  501  0.00000000000E+00  0.00000000000E+00  0.32252877747E+03  0.32252877751E+03  0.50400001928E-02 0.  1.
        1   -1    0    0  501    0  0.00000000000E+00  0.00000000000E+00 -0.22202262912E+04  0.22202262912E+04  0.50400001928E-02 0. -1.
    10030    2    1    2    0    0  0.00000000000E+00  0.00000000000E+00 -0.18976975137E+04  0.25427550687E+04  0.16924383256E+04 0.  0.
        5    1    3    3  502    0 -0.36084034232E+03  0.71950090295E+03 -0.55655432141E+03  0.97860211766E+03  0.46999998093E+01 0.  1.
       -5    1    3    3    0  502  0.36084034232E+03 -0.71950090295E+03 -0.13411431923E+04  0.15641529511E+04  0.46999998093E+01 0. -1.
</event>
<event>
 5   0  0.6539134E-05  0.1688139E+04  0.7818609E-02  0.8768158E-01
        1   -1    0    0  501    0  0.00000000000E+00  0.00000000000E+00  0.98856129608E+03  0.98856129609E+03  0.50400001928E-02 0.  1.
       -1   -1    0    0    0  501  0.00000000000E+00  0.00000000000E+00 -0.72069676639E+03  0.72069676641E+03  0.50400001928E-02 0. -1.
    10030    2    1    2    0    0  0.00000000000E+00  0.00000000000E+00  0.26786452969E+03  0.17092580625E+04  0.16881385364E+04 0.  0.
        2    1    3    3  502    0 -0.72693434239E+03 -0.28832906253E+03 -0.18766655892E+03  0.80423001921E+03  0.25500000920E-02 0.  1.
       -2    1    3    3    0  502  0.72693434239E+03  0.28832906253E+03  0.45553108861E+03  0.90502804329E+03  0.25500000920E-02 0. -1.
</event>
<event>
 5   0  0.1255362E-04  0.1699269E+04  0.7818609E-02  0.8761781E-01
        2   -1    0    0  501    0  0.00000000000E+00  0.00000000000E+00  0.10264218812E+04  0.10264218812E+04  0.25500000920E-02 0. -1.
       -2   -1    0    0    0  501  0.00000000000E+00  0.00000000000E+00 -0.70329674750E+03  0.70329674750E+03  0.25500000920E-02 0.  1.
    10030    2    1    2    0    0  0.00000000000E+00  0.00000000000E+00  0.32312513368E+03  0.17297186287E+04  0.16992694555E+04 0.  0.
        1    1    3    3  502    0  0.66837692431E+03 -0.73014844426E+02  0.69031272970E+03  0.96363403077E+03  0.50400001928E-02 0. -1.
       -1    1    3    3    0  502 -0.66837692431E+03  0.73014844426E+02 -0.36718759602E+03  0.76608459791E+03  0.50400001928E-02 0.  1.
</event>
<event>
 5   0  0.6564887E-05  0.1693488E+04  0.7818609E-02  0.8765087E-01
       -1   -1    0    0    0  501  0.00000000000E+00  0.00000000000E+00  0.14915206596E+04  0.14915206596E+04  0.50400001928E-02 0.  1.
        1   -1    0    0  501    0  0.00000000000E+00  0.00000000000E+00 -0.48070097025E+03  0.48070097028E+03  0.50400001928E-02 0. -1.
    10030    2    1    2    0    0  0.00000000000E+00  0.00000000000E+00  0.10108196893E+04  0.19722216298E+04  0.16934880315E+04 0.  0.
        4    1    3    3  502    0  0.57980682405E+03 -0.35261766864E+03 -0.84359581531E+02  0.68383720676E+03  0.12699999809E+01 0. -1.
       -4    1    3    3    0  502 -0.57980682405E+03  0.35261766864E+03  0.10951792708E+04  0.12883844231E+04  0.12699999809E+01 0.  1.
</event>
<event>
 5   0  0.1255362E-04  0.1699583E+04  0.7818609E-02  0.8761602E-01
        2   -1    0    0  501    0  0.00000000000E+00  0.00000000000E+00  0.58663168876E+03  0.58663168877E+03  0.25500000920E-02 0.  1.
       -2   -1    0    0    0  501  0.00000000000E+00  0.00000000000E+00 -0.12310029512E+04  0.12310029512E+04  0.25500000920E-02 0. -1.
    10030    2    1    2    0    0  0.00000000000E+00  0.00000000000E+00 -0.64437126248E+03  0.18176346400E+04  0.16995827019E+04 0.  0.
        1    1    3    3  502    0 -0.54525195485E+03 -0.61653040901E+03 -0.54838551688E+03  0.98900764136E+03  0.50400001928E-02 0. -1.
       -1    1    3    3    0  502  0.54525195485E+03  0.61653040901E+03 -0.95985745596E+02  0.82862699865E+03  0.50400001928E-02 0.  1.
</event>
<event>
 5   0  0.1393870E-04  0.1701700E+04  0.7818609E-02  0.8760395E-01
        2   -1    0    0  501    0  0.00000000000E+00  0.00000000000E+00  0.98157597012E+03  0.98157597012E+03  0.25500000920E-02 0.  1.
       -2   -1    0    0    0  501  0.00000000000E+00  0.00000000000E+00 -0.73753433787E+03  0.73753433787E+03  0.25500000920E-02 0. -1.
    10030    2    1    2    0    0  0.00000000000E+00  0.00000000000E+00  0.24404163225E+03  0.17191103080E+04  0.17017003064E+04 0.  0.
        3    1    3    3  502    0  0.66734855105E+03 -0.43263067153E+03 -0.18343431103E+03  0.81619332465E+03  0.10100000352E+00 0. -1.
       -3    1    3    3    0  502 -0.66734855105E+03  0.43263067153E+03  0.42747594329E+03  0.90291698335E+03  0.10100000352E+00 0.  1.
</event>
<event>
 5   0  0.1393870E-04  0.1702229E+04  0.7818609E-02  0.8760094E-01
       -2   -1    0    0    0  501  0.00000000000E+00  0.00000000000E+00  0.37725209660E+03  0.37725209661E+03  0.25500000920E-02 0.  1.
        2   -1    0    0  501    0  0.00000000000E+00  0.00000000000E+00 -0.19201900117E+04  0.19201900117E+04  0.25500000920E-02 0. -1.
    10030    2    1    2    0    0  0.00000000000E+00  0.00000000000E+00 -0.15429379151E+04  0.22974421083E+04  0.17022287835E+04 0.  0.
        3    1    3    3  502    0  0.33818846729E+03 -0.77840053493E+03 -0.68487053481E+03  0.10905624658E+04  0.10100000352E+00 0.  1.
       -3    1    3    3    0  502 -0.33818846729E+03  0.77840053493E+03 -0.85806738034E+03  0.12068796425E+04  0.10100000352E+00 0. -1.
</event>
<event>
 5   0  0.6601906E-05  0.1689107E+04  0.7818609E-02  0.8767601E-01
       -1   -1    0    0    0  501  0.00000000000E+00  0.00000000000E+00  0.12422671561E+04  0.12422671561E+04  0.50400001928E-02 0. -1.
        1   -1    0    0  501    0  0.00000000000E+00  0.00000000000E+00 -0.57416857973E+03  0.57416857975E+03  0.50400001928E-02 0.  1.
    10030    2    1    2    0    0  0.00000000000E+00  0.00000000000E+00  0.66809857639E+03  0.18164357359E+04  0.16891071827E+04 0.  0.
        1    1    3    3  502    0  0.32437156667E+03 -0.27513799636E+03 -0.45057664198E+03  0.61962661388E+03  0.50400001928E-02 0.  1.
       -1    1    3    3    0  502 -0.32437156667E+03  0.27513799636E+03  0.11186752184E+04  0.11968091220E+04  0.50400001928E-02 0. -1.
</event>
<event>
 5   0  0.6834837E-05  0.1732486E+04  0.7818609E-02  0.8743051E-01
        1   -1    0    0  501    0  0.00000000000E+00  0.00000000000E+00  0.20951696648E+04  0.20951696648E+04  0.50400001928E-02 0.  1.
       -1   -1    0    0    0  501  0.00000000000E+00  0.00000000000E+00 -0.35814595008E+03  0.35814595012E+03  0.50400001928E-02 0. -1.
    10030    2    1    2    0    0  0.00000000000E+00  0.00000000000E+00  0.17370237147E+04  0.24533156149E+04  0.17324855327E+04 0.  0.
        5    1    3    3  502    0  0.42576757783E+03  0.64177045658E+02  0.19328797833E+04  0.19802633840E+04  0.46999998093E+01 0.  1.
       -5    1    3    3    0  502 -0.42576757783E+03 -0.64177045658E+02 -0.19585606859E+03  0.47305223086E+03  0.46999998093E+01 0. -1.
</event>
<event>
 5   0  0.1393870E-04  0.1691928E+04  0.7818609E-02  0.8765981E-01
        2   -1    0    0  501    0  0.00000000000E+00  0.00000000000E+00  0.18602194211E+04  0.18602194211E+04  0.25500000920E-02 0.  1.
       -2   -1    0    0    0  501  0.00000000000E+00  0.00000000000E+00 -0.38471554430E+03  0.38471554431E+03  0.25500000920E-02 0. -1.
    10030    2    1    2    0    0  0.00000000000E+00  0.00000000000E+00  0.14755038768E+04  0.22449349654E+04  0.16919282811E+04 0.  0.
        3    1    3    3  502    0  0.59462637418E+03  0.70450509016E+02  0.15306616610E+04  0.16436145928E+04  0.10100000352E+00 0.  1.
       -3    1    3    3    0  502 -0.59462637418E+03 -0.70450509016E+02 -0.55157784224E+02  0.60132037256E+03  0.10100000352E+00 0. -1.
</event>
<event>
 5   0  0.6834837E-05  0.1701006E+04  0.7818609E-02  0.8760791E-01
       -1   -1    0    0    0  501  0.00000000000E+00  0.00000000000E+00  0.60331780898E+03  0.60331780900E+03  0.50400001928E-02 0.  1.
        1   -1    0    0  501    0  0.00000000000E+00  0.00000000000E+00 -0.11989617823E+04  0.11989617823E+04  0.50400001928E-02 0. -1.
    10030    2    1    2    0    0  0.00000000000E+00  0.00000000000E+00 -0.59564397329E+03  0.18022795913E+04  0.17010055797E+04 0.  0.
        5    1    3    3  502    0  0.36838828529E+03  0.21396733481E+03  0.48210211481E+03  0.64337896158E+03  0.46999998093E+01 0.  1.
       -5    1    3    3    0  502 -0.36838828529E+03 -0.21396733481E+03 -0.10777460881E+04  0.11589006297E+04  0.46999998093E+01 0. -1.
</event>
<event>
 5   0  0.1269175E-04  0.1697173E+04  0.7818609E-02  0.8762978E-01
       -2   -1    0    0    0  501  0.00000000000E+00  0.00000000000E+00  0.34713180765E+03  0.34713180766E+03  0.25500000920E-02 0.  1.
        2   -1    0    0  501    0  0.00000000000E+00  0.00000000000E+00 -0.20744263681E+04  0.20744263681E+04  0.25500000920E-02 0. -1.
    10030    2    1    2    0    0  0.00000000000E+00  0.00000000000E+00 -0.17272945605E+04  0.24215581758E+04  0.16971733854E+04 0.  0.
        2    1    3    3  502    0  0.12806334221E+03  0.62036177386E+03 -0.57968001006E+02  0.63608901832E+03  0.25500000920E-02 0.  1.
       -2    1    3    3    0  502 -0.12806334221E+03 -0.62036177386E+03 -0.16693265595E+04  0.17854691575E+04  0.25500000920E-02 0. -1.
</event>
<event>
 5   0  0.6615842E-05  0.1700410E+04  0.7818609E-02  0.8761131E-01
       -1   -1    0    0    0  501  0.00000000000E+00  0.00000000000E+00  0.58524763075E+03  0.58524763077E+03  0.50400001928E-02 0. -1.
        1   -1    0    0  501    0  0.00000000000E+00  0.00000000000E+00 -0.12351158012E+04  0.12351158012E+04  0.50400001928E-02 0.  1.
    10030    2    1    2    0    0  0.00000000000E+00  0.00000000000E+00 -0.64986817046E+03  0.18203634320E+04  0.17004100639E+04 0.  0.
        3    1    3    3  502    0  0.66604016057E+03  0.26348248909E+03  0.16543581962E+03  0.73512008418E+03  0.10100000352E+00 0. -1.
       -3    1    3    3    0  502 -0.66604016057E+03 -0.26348248909E+03 -0.81530399008E+03  0.10852433478E+04  0.10100000352E+00 0.  1.
</event>
<event>
 5   0  0.6601906E-05  0.1690976E+04  0.7818609E-02  0.8766528E-01
        1   -1    0    0  501    0  0.00000000000E+00  0.00000000000E+00  0.18571479967E+04  0.18571479967E+04  0.50400001928E-02 0.  1.
       -1   -1    0    0    0  501  0.00000000000E+00  0.00000000000E+00 -0.38491810305E+03  0.38491810308E+03  0.50400001928E-02 0. -1.
    10030    2    1    2    0    0  0.00000000000E+00  0.00000000000E+00  0.14722298937E+04  0.22420660998E+04  0.16909759123E+04 0.  0.
        1    1    3    3  502    0  0.31540400500E+03  0.55015968782E+03  0.14775466000E+04  0.16078866017E+04  0.50400001928E-02 0.  1.
       -1    1    3    3    0  502 -0.31540400500E+03 -0.55015968782E+03 -0.53167063823E+01  0.63417949814E+03  0.50400001928E-02 0. -1.
</event>
<event>
 5   0  0.6564887E-05  0.1702919E+04  0.7818609E-02  0.8759701E-01
        1   -1    0    0  501    0  0.00000000000E+00  0.00000000000E+00  0.14173131383E+04  0.14173131383E+04  0.50400001928E-02 0.  1.
       -1   -1    0    0    0  501  0.00000000000E+00  0.00000000000E+00 -0.51151961062E+03  0.51151961065E+03  0.50400001928E-02 0. -1.
    10030    2    1    2    0    0  0.00000000000E+00  0.00000000000E+00  0.90579352771E+03  0.19288327490E+04  0.17029192167E+04 0.  0.
        4    1    3    3  502    0 -0.14219807056E+03 -0.59725584627E+02 -0.49556482854E+03  0.51901208938E+03  0.12699999809E+01 0. -1.
       -4    1    3    3    0  502  0.14219807056E+03  0.59725584627E+02  0.14013583563E+04  0.14098206596E+04  0.12699999809E+01 0.  1.
</event>
<event>
 5   0  0.1285639E-04  0.1693515E+04  0.7818609E-02  0.8765071E-01
       -2   -1    0    0    0  501  0.00000000000E+00  0.00000000000E+00  0.51387521854E+03  0.51387521854E+03  0.25500000920E-02 0.  1.
        2   -1    0    0  501    0  0.00000000000E+00  0.00000000000E+00 -0.13952774450E+04  0.13952774450E+04  0.25500000920E-02 0. -1.
    10030    2    1    2    0    0  0.00000000000E+00  0.00000000000E+00 -0.88140222650E+03  0.19091526636E+04  0.16935152813E+04 0.  0.
        4    1    3    3  502    0 -0.64772860106E+03  0.99030413279E+02 -0.10453096989E+04  0.12337071545E+04  0.12699999809E+01 0. -1.
       -4    1    3    3    0  502  0.64772860106E+03 -0.99030413279E+02  0.16390747243E+03  0.67544550913E+03  0.12699999809E+01 0.  1.
</event>
<event>
 5   0  0.6615842E-05  0.1700794E+04  0.7818609E-02  0.8760911E-01
       -1   -1    0    0    0  501  0.00000000000E+00  0.00000000000E+00  0.46044821095E+03  0.46044821098E+03  0.50400001928E-02 0. -1.
        1   -1    0    0  501    0  0.00000000000E+00  0.00000000000E+00 -0.15705900948E+04  0.15705900948E+04  0.50400001928E-02 0.  1.
    10030    2    1    2    0    0  0.00000000000E+00  0.00000000000E+00 -0.11101418839E+04  0.20310383058E+04  0.17007944018E+04 0.  0.
        3    1    3    3  502    0  0.61893672894E+03  0.54272975825E+03 -0.30024179710E+03  0.87623251015E+03  0.10100000352E+00 0.  1.
       -3    1    3    3    0  502 -0.61893672894E+03 -0.54272975825E+03 -0.80990008676E+03  0.11548057956E+04  0.10100000352E+00 0. -1.
</event>
<event>
 5   0  0.6834837E-05  0.1700863E+04  0.7818609E-02  0.8760872E-01
        1   -1    0    0  501    0  0.00000000000E+00  0.00000000000E+00  0.16812318126E+04  0.16812318127E+04  0.50400001928E-02 0. -1.
       -1   -1    0    0    0  501  0.00000000000E+00  0.00000000000E+00 -0.43018080254E+03  0.43018080257E+03  0.50400001928E-02 0.  1.
    10030    2    1    2    0    0  0.00000000000E+00  0.00000000000E+00  0.12510510101E+04  0.21114126152E+04  0.17008628992E+04 0.  0.
        5    1    3    3  502    0 -0.47775625629E+03  0.49667539641E+03  0.12440679212E+04  0.14222041247E+04  0.46999998093E+01 0. -1.
       -5    1    3    3    0  502  0.47775625629E+03 -0.49667539641E+03  0.69830888861E+01  0.68920849048E+03  0.46999998093E+01 0.  1.
</event>
<event>
 5   0  0.6564887E-05  0.1692971E+04  0.7818609E-02  0.8765383E-01
        1   -1    0    0  501    0  0.00000000000E+00  0.00000000000E+00  0.24975379309E+04  0.24975379309E+04  0.50400001928E-02 0. -1.
       -1   -1    0    0    0  501  0.00000000000E+00  0.00000000000E+00 -0.28689759604E+03  0.28689759609E+03  0.50400001928E-02 0.  1.
    10030    2    1    2    0    0  0.00000000000E+00  0.00000000000E+00  0.22106403349E+04  0.27844355270E+04  0.16929709135E+04 0.  0.
        4    1    3    3  502    0 -0.79705766347E+03  0.22256928098E+03  0.13981421531E+04  0.16246972324E+04  0.12699999809E+01 0. -1.
       -4    1    3    3    0  502  0.79705766347E+03 -0.22256928098E+03  0.81249818175E+03  0.11597382946E+04  0.12699999809E+01 0.  1.
</event>
<event>
 5   0  0.1269175E-04  0.1699372E+04  0.7818609E-02  0.8761723E-01
        2   -1    0    0  501    0  0.00000000000E+00  0.00000000000E+00  0.14370395072E+04  0.14370395072E+04  0.25500000920E-02 0. -1.
       -2   -1    0    0    0  501  0.00000000000E+00  0.00000000000E+00 -0.50239816878E+03  0.50239816879E+03  0.25500000920E-02 0.  1.
    10030    2    1    2    0    0  0.00000000000E+00  0.00000000000E+00  0.93464133845E+03  0.19394376760E+04  0.16993716685E+04 0.  0.
        2    1    3    3  502    0  0.28211096445E+03  0.52908865693E+02  0.13800350987E+04  0.14095683091E+04  0.25500000920E-02 0. -1.
       -2    1    3    3    0  502 -0.28211096445E+03 -0.52908865693E+02 -0.44539376026E+03  0.52986936693E+03  0.25500000920E-02 0.  1.
</event>
<event>
 5   0  0.1285639E-04  0.1703490E+04  0.7818609E-02  0.8759376E-01
        2   -1    0    0  501    0  0.00000000000E+00  0.00000000000E+00  0.14618722847E+04  0.14618722847E+04  0.25500000920E-02 0. -1.
       -2   -1    0    0    0  501  0.00000000000E+00  0.00000000000E+00 -0.49626070027E+03  0.49626070028E+03  0.25500000920E-02 0.  1.
    10030    2    1    2    0    0  0.00000000000E+00  0.00000000000E+00  0.96561158445E+03  0.19581329850E+04  0.17034902568E+04 0.  0.
        4    1    3    3  502    0  0.27199744120E+03  0.43482361195E+03 -0.29885441241E+03  0.59360740750E+03  0.12699999809E+01 0.  1.
       -4    1    3    3    0  502 -0.27199744120E+03 -0.43482361195E+03  0.12644659969E+04  0.13645255775E+04  0.12699999809E+01 0. -1.
</event>
<event>
 5   0  0.1285639E-04  0.1703799E+04  0.7818609E-02  0.8759201E-01
       -2   -1    0    0    0  501  0.00000000000E+00  0.00000000000E+00  0.38470784528E+03  0.38470784529E+03  0.25500000920E-02 0.  1.
        2   -1    0    0  501    0  0.00000000000E+00  0.00000000000E+00 -0.18864506951E+04  0.18864506951E+04  0.25500000920E-02 0. -1.
    10030    2    1    2    0    0  0.00000000000E+00  0.00000000000E+00 -0.15017428498E+04  0.22711585404E+04  0.17037985587E+04 0.  0.
        4    1    3    3  502    0 -0.76893452272E+03 -0.12498457896E+03 -0.12104159148E+04  0.14394407751E+04  0.12699999809E+01 0. -1.
       -4    1    3    3    0  502  0.76893452272E+03  0.12498457896E+03 -0.29132693502E+03  0.83171776534E+03  0.12699999809E+01 0.  1.
</event>
<event>
 5   0  0.6564887E-05  0.1589193E+04  0.7818609E-02  0.8827215E-01
        1   -1    0    0  501    0  0.00000000000E+00  0.00000000000E+00  0.57344662175E+03  0.57344662177E+03  0.50400001928E-02 0. -1.
       -1   -1    0    0    0  501  0.00000000000E+00  0.00000000000E+00 -0.11010326083E+04  0.11010326083E+04  0.50400001928E-02 0.  1.
    10030    2    1    2    0    0  0.00000000000E+00  0.00000000000E+00 -0.52758598651E+03  0.16744792300E+04  0.15891927884E+04 0.  0.
        4    1    3    3  502    0 -0.41343087979E+03  0.83204828567E+02  0.44579776692E+03  0.61366554226E+03  0.12699999809E+01 0. -1.
       -4    1    3    3    0  502  0.41343087979E+03 -0.83204828567E+02 -0.97338375343E+03  0.10608136878E+04  0.12699999809E+01 0.  1.
</event>
<event>
 5   0  0.1269175E-04  0.1695344E+04  0.7818609E-02  0.8764024E-01
        2   -1    0    0  501    0  0.00000000000E+00  0.00000000000E+00  0.20148097775E+04  0.20148097775E+04  0.25500000920E-02 0.  1.
       -2   -1    0    0    0  501  0.00000000000E+00  0.00000000000E+00 -0.35663297507E+03  0.35663297508E+03  0.25500000920E-02 0. -1.
    10030    2    1    2    0    0  0.00000000000E+00  0.00000000000E+00  0.16581768024E+04  0.23714427526E+04  0.16953437470E+04 0.  0.
        2    1    3    3  502    0  0.47285569080E+03 -0.26328274430E+03 -0.83499516874E+02  0.54761526375E+03  0.25500000920E-02 0. -1.
       -2    1    3    3    0  502 -0.47285569080E+03  0.26328274430E+03  0.17416763193E+04  0.18238274888E+04  0.25500000920E-02 0.  1.
</event>
<event>
 5   0  0.1285639E-04  0.1681821E+04  0.7818609E-02  0.8771801E-01
       -2   -1    0    0    0  501  0.00000000000E+00  0.00000000000E+00  0.52679841990E+03  0.52679841990E+03  0.25500000920E-02 0.  1.
        2   -1    0    0  501    0  0.00000000000E+00  0.00000000000E+00 -0.13423169318E+04  0.13423169318E+04  0.25500000920E-02 0. -1.
    10030    2    1    2    0    0  0.00000000000E+00  0.00000000000E+00 -0.81551851193E+03  0.18691153517E+04  0.16818209640E+04 0.  0.
        4    1    3    3  502    0 -0.74374685659E+03 -0.21847817933E+02 -0.84317023301E+03  0.11245329557E+04  0.12699999809E+01 0. -1.
       -4    1    3    3    0  502  0.74374685659E+03  0.21847817933E+02  0.27651721081E+02  0.74458239598E+03  0.12699999809E+01 0.  1.
</event>
<event>
 5   0  0.1333546E-04  0.1710632E+04  0.7818609E-02  0.8755324E-01
       -2   -1    0    0    0  501  0.00000000000E+00  0.00000000000E+00  0.28299715488E+03  0.28299715489E+03  0.25500000920E-02 0.  1.
        2   -1    0    0  501    0  0.00000000000E+00  0.00000000000E+00 -0.25850620518E+04  0.25850620518E+04  0.25500000920E-02 0. -1.
    10030    2    1    2    0    0  0.00000000000E+00  0.00000000000E+00 -0.23020648969E+04  0.28680592067E+04  0.17106317030E+04 0.  0.
        5    1    3    3  502    0  0.24171359592E+02 -0.78420721615E+03 -0.58005464889E+03  0.97573085336E+03  0.46999998093E+01 0.  1.
       -5    1    3    3    0  502 -0.24171359592E+02  0.78420721615E+03 -0.17220102480E+04  0.18923283533E+04  0.46999998093E+01 0. -1.
</event>
<event>
 5   0  0.6539134E-05  0.1703918E+04  0.7818609E-02  0.8759133E-01
       -1   -1    0    0    0  501  0.00000000000E+00  0.00000000000E+00  0.51753198198E+03  0.51753198201E+03  0.50400001928E-02 0. -1.
        1   -1    0    0  501    0  0.00000000000E+00  0.00000000000E+00 -0.14024913019E+04  0.14024913019E+04  0.50400001928E-02 0.  1.
    10030    2    1    2    0    0  0.00000000000E+00  0.00000000000E+00 -0.88495931993E+03  0.19200232839E+04  0.17039179596E+04 0.  0.
        2    1    3    3  502    0  0.23720737106E+03  0.18739014803E+03 -0.13400264482E+04  0.13737005810E+04  0.25500000920E-02 0.  1.
       -2    1    3    3    0  502 -0.23720737106E+03 -0.18739014803E+03  0.45506712827E+03  0.54632270289E+03  0.25500000920E-02 0. -1.
</event>
<event>
 5   0  0.1333546E-04  0.1681388E+04  0.7818609E-02  0.8772051E-01
        2   -1    0    0  501    0  0.00000000000E+00  0.00000000000E+00  0.13255635985E+04  0.13255635985E+04  0.25500000920E-02 0.  1.
       -2   -1    0    0    0  501  0.00000000000E+00  0.00000000000E+00 -0.53318194072E+03  0.53318194072E+03  0.25500000920E-02 0. -1.
    10030    2    1    2    0    0  0.00000000000E+00  0.00000000000E+00  0.79238165776E+03  0.18587455392E+04  0.16813882026E+04 0.  0.
        5    1    3    3  502    0  0.53873117649E+03 -0.56853410353E+03  0.58552863688E+02  0.78543798943E+03  0.46999998093E+01 0. -1.
       -5    1    3    3    0  502 -0.53873117649E+03  0.56853410353E+03  0.73382879407E+03  0.10733075498E+04  0.46999998093E+01 0.  1.
</event>
<event>
 5   0  0.4720875E-05  0.1728783E+04  0.7818609E-02  0.8745116E-01
       -3   -1    0    0    0  501  0.00000000000E+00  0.00000000000E+00  0.87850482847E+03  0.87850483428E+03  0.10100000352E+00 0.  1.
        3   -1    0    0  501    0  0.00000000000E+00  0.00000000000E+00 -0.85050525060E+03  0.85050525660E+03  0.10100000352E+00 0. -1.
    10030    2    1    2    0    0  0.00000000000E+00  0.00000000000E+00  0.27999577874E+02  0.17290100909E+04  0.17287833635E+04 0.  0.
        2    1    3    3  502    0  0.48543017706E+03 -0.70823097954E+03 -0.85709837292E+02  0.86289034842E+03  0.25500000920E-02 0.  1.
       -2    1    3    3    0  502 -0.48543017706E+03  0.70823097954E+03  0.11370941517E+03  0.86611974246E+03  0.25500000920E-02 0. -1.
</event>
<event>
 5   0  0.6539134E-05  0.1697752E+04  0.7818609E-02  0.8762647E-01
       -1   -1    0    0    0  501  0.00000000000E+00  0.00000000000E+00  0.11526822558E+04  0.11526822558E+04  0.50400001928E-02 0. -1.
        1   -1    0    0  501    0  0.00000000000E+00  0.00000000000E+00 -0.62514245255E+03  0.62514245257E+03  0.50400001928E-02 0.  1.
    10030    2    1    2    0    0  0.00000000000E+00  0.00000000000E+00  0.52753980324E+03  0.17778247084E+04  0.16977521756E+04 0.  0.
        2    1    3    3  502    0 -0.79415865511E+03  0.10603507509E+03 -0.29920275138E+02  0.80176469709E+03  0.25500000920E-02 0.  1.
       -2    1    3    3    0  502  0.79415865511E+03 -0.10603507509E+03  0.55746007838E+03  0.97606001128E+03  0.25500000920E-02 0. -1.
</event>
<event>
 5   0  0.1255362E-04  0.1702114E+04  0.7818609E-02  0.8760159E-01
       -2   -1    0    0    0  501  0.00000000000E+00  0.00000000000E+00  0.10833885488E+04  0.10833885488E+04  0.25500000920E-02 0.  1.
        2   -1    0    0  501    0  0.00000000000E+00  0.00000000000E+00 -0.66854885967E+03  0.66854885967E+03  0.25500000920E-02 0. -1.
    10030    2    1    2    0    0  0.00000000000E+00  0.00000000000E+00  0.41483968914E+03  0.17519374085E+04  0.17021141899E+04 0.  0.
        1    1    3    3  502    0 -0.47363370654E+03  0.66991149801E+03  0.44028979313E+03  0.93110977070E+03  0.50400001928E-02 0.  1.
       -1    1    3    3    0  502  0.47363370654E+03 -0.66991149801E+03 -0.25450103991E+02  0.82082763779E+03  0.50400001928E-02 0. -1.
</event>
<event>
 5   0  0.6564887E-05  0.1697681E+04  0.7818609E-02  0.8762688E-01
        1   -1    0    0  501    0  0.00000000000E+00  0.00000000000E+00  0.14050304769E+04  0.14050304770E+04  0.50400001928E-02 0.  1.
       -1   -1    0    0    0  501  0.00000000000E+00  0.00000000000E+00 -0.51282160149E+03  0.51282160151E+03  0.50400001928E-02 0. -1.
    10030    2    1    2    0    0  0.00000000000E+00  0.00000000000E+00  0.89220887545E+03  0.19178520785E+04  0.16976807466E+04 0.  0.
        4    1    3    3  502    0  0.22791138181E+02 -0.69612107566E+03  0.99423598779E+03  0.12139237209E+04  0.12699999809E+01 0.  1.
       -4    1    3    3    0  502 -0.22791138181E+02  0.69612107566E+03 -0.10202711234E+03  0.70392835751E+03  0.12699999809E+01 0. -1.
</event>
<event>
 5   0  0.1393870E-04  0.1705223E+04  0.7818609E-02  0.8758391E-01
        2   -1    0    0  501    0  0.00000000000E+00  0.00000000000E+00  0.12387553765E+04  0.12387553765E+04  0.25500000920E-02 0.  1.
       -2   -1    0    0    0  501  0.00000000000E+00  0.00000000000E+00 -0.58683588221E+03  0.58683588221E+03  0.25500000920E-02 0. -1.
    10030    2    1    2    0    0  0.00000000000E+00  0.00000000000E+00  0.65191949430E+03  0.18255912587E+04  0.17052226884E+04 0.  0.
        3    1    3    3  502    0 -0.24935577227E+03  0.27615293663E+03  0.11472532558E+04  0.12060799263E+04  0.10100000352E+00 0.  1.
       -3    1    3    3    0  502  0.24935577227E+03 -0.27615293663E+03 -0.49533376145E+03  0.61951133243E+03  0.10100000352E+00 0. -1.
</event>
<event>
 5   0  0.6834837E-05  0.1703809E+04  0.7818609E-02  0.8759195E-01
        1   -1    0    0  501    0  0.00000000000E+00  0.00000000000E+00  0.80921763572E+03  0.80921763574E+03  0.50400001928E-02 0. -1.
       -1   -1    0    0    0  501  0.00000000000E+00  0.00000000000E+00 -0.89684264001E+03  0.89684264002E+03  0.50400001928E-02 0.  1.
    10030    2    1    2    0    0  0.00000000000E+00  0.00000000000E+00 -0.87625004288E+02  0.17060602758E+04  0.17038085348E+04 0.  0.
        5    1    3    3  502    0 -0.27689528042E+03 -0.55403037388E+03 -0.62947705259E+03  0.88311046943E+03  0.46999998093E+01 0.  1.
       -5    1    3    3    0  502  0.27689528042E+03  0.55403037388E+03  0.54185204830E+03  0.82294980633E+03  0.46999998093E+01 0. -1.
</event>
<event>
 5   0  0.6615842E-05  0.1696932E+04  0.7818609E-02  0.8763116E-01
        1   -1    0    0  501    0  0.00000000000E+00  0.00000000000E+00  0.18384985486E+04  0.18384985487E+04  0.50400001928E-02 0.  1.
       -1   -1    0    0    0  501  0.00000000000E+00  0.00000000000E+00 -0.39156657728E+03  0.39156657731E+03  0.50400001928E-02 0. -1.
    10030    2    1    2    0    0  0.00000000000E+00  0.00000000000E+00  0.14469319714E+04  0.22300651260E+04  0.16969320364E+04 0.  0.
        3    1    3    3  502    0  0.62770455284E+03 -0.54261338132E+03  0.49039983158E+03  0.96381237399E+03  0.10100000352E+00 0. -1.
       -3    1    3    3    0  502 -0.62770455284E+03  0.54261338132E+03  0.95653213978E+03  0.12662527520E+04  0.10100000352E+00 0.  1.
</event>
<event>
 5   0  0.4720875E-05  0.1705449E+04  0.7818609E-02  0.8758263E-01
       -3   -1    0    0    0  501  0.00000000000E+00  0.00000000000E+00  0.42155448057E+03  0.42155449267E+03  0.10100000352E+00 0.  1.
        3   -1    0    0  501    0  0.00000000000E+00  0.00000000000E+00 -0.17248998563E+04  0.17248998592E+04  0.10100000352E+00 0. -1.
    10030    2    1    2    0    0  0.00000000000E+00  0.00000000000E+00 -0.13033453757E+04  0.21464543519E+04  0.17054492418E+04 0.  0.
        1    1    3    3  502    0  0.70158972848E+03 -0.96134115526E+02 -0.12495597571E+04  0.14362692999E+04  0.50400001928E-02 0. -1.
       -1    1    3    3    0  502 -0.70158972848E+03  0.96134115526E+02 -0.53785618618E+02  0.71018505199E+03  0.50400001928E-02 0.  1.
</event>
<event>
 5   0  0.1269175E-04  0.1700092E+04  0.7818609E-02  0.8761312E-01
       -2   -1    0    0    0  501  0.00000000000E+00  0.00000000000E+00  0.41998409804E+03  0.41998409805E+03  0.25500000920E-02 0.  1.
        2   -1    0    0  501    0  0.00000000000E+00  0.00000000000E+00 -0.17204897539E+04  0.17204897539E+04  0.25500000920E-02 0. -1.
    10030    2    1    2    0    0  0.00000000000E+00  0.00000000000E+00 -0.13005056559E+04  0.21404738520E+04  0.17000921593E+04 0.  0.
        2    1    3    3  502    0  0.44382055528E+03 -0.29312829361E+03 -0.14850953500E+04  0.15774692011E+04  0.25500000920E-02 0. -1.
       -2    1    3    3    0  502 -0.44382055528E+03  0.29312829361E+03  0.18458969407E+03  0.56300465093E+03  0.25500000920E-02 0.  1.
</event>
<event>
 5   0  0.1333546E-04  0.1701842E+04  0.7818609E-02  0.8760314E-01
       -2   -1    0    0    0  501  0.00000000000E+00  0.00000000000E+00  0.10627165923E+04  0.10627165923E+04  0.25500000920E-02 0.  1.
        2   -1    0    0  501    0  0.00000000000E+00  0.00000000000E+00 -0.68133558142E+03  0.68133558143E+03  0.25500000920E-02 0. -1.
    10030    2    1    2    0    0  0.00000000000E+00  0.00000000000E+00  0.38138101090E+03  0.17440521738E+04  0.17018420929E+04 0.  0.
        5    1    3    3  502    0  0.74478349391E+02  0.83318880635E+03  0.30959560218E+02  0.83709688563E+03  0.46999998093E+01 0. -1.
       -5    1    3    3    0  502 -0.74478349391E+02 -0.83318880635E+03  0.35042145069E+03  0.90695528813E+03  0.46999998093E+01 0.  1.
</event>
<event>
 5   0  0.6564887E-05  0.1690231E+04  0.7818609E-02  0.8766956E-01
        1   -1    0    0  501    0  0.00000000000E+00  0.00000000000E+00  0.71544916155E+03  0.71544916157E+03  0.50400001928E-02 0. -1.
       -1   -1    0    0    0  501  0.00000000000E+00  0.00000000000E+00 -0.99828188136E+03  0.99828188137E+03  0.50400001928E-02 0.  1.
    10030    2    1    2    0    0  0.00000000000E+00  0.00000000000E+00 -0.28283271981E+03  0.17137310429E+04  0.16902306766E+04 0.  0.
        4    1    3    3  502    0 -0.54587039244E+03 -0.49104330067E+03  0.28287574178E+03  0.78684071238E+03  0.12699999809E+01 0. -1.
       -4    1    3    3    0  502  0.54587039244E+03  0.49104330067E+03 -0.56570846158E+03  0.92689033056E+03  0.12699999809E+01 0.  1.
</event>
<event>
 5   0  0.1285639E-04  0.1703358E+04  0.7818609E-02  0.8759451E-01
        2   -1    0    0  501    0  0.00000000000E+00  0.00000000000E+00  0.59674933215E+03  0.59674933216E+03  0.25500000920E-02 0.  1.
       -2   -1    0    0    0  501  0.00000000000E+00  0.00000000000E+00 -0.12155139741E+04  0.12155139741E+04  0.25500000920E-02 0. -1.
    10030    2    1    2    0    0  0.00000000000E+00  0.00000000000E+00 -0.61876464198E+03  0.18122633063E+04  0.17033580390E+04 0.  0.
        4    1    3    3  502    0  0.17152821229E+03  0.70897546252E+03 -0.77713591246E+03  0.10658376862E+04  0.12699999809E+01 0. -1.
       -4    1    3    3    0  502 -0.17152821229E+03 -0.70897546252E+03  0.15837127048E+03  0.74642562006E+03  0.12699999809E+01 0.  1.
</event>
<event>
 5   0  0.6834837E-05  0.1699281E+04  0.7818609E-02  0.8761775E-01
        1   -1    0    0  501    0  0.00000000000E+00  0.00000000000E+00  0.16546931803E+04  0.16546931803E+04  0.50400001928E-02 0.  1.
       -1   -1    0    0    0  501  0.00000000000E+00  0.00000000000E+00 -0.43626733634E+03  0.43626733637E+03  0.50400001928E-02 0. -1.
    10030    2    1    2    0    0  0.00000000000E+00  0.00000000000E+00  0.12184258439E+04  0.20909605167E+04  0.16992805375E+04 0.  0.
        5    1    3    3  502    0 -0.15129072657E+03 -0.65513934128E+03 -0.29900031362E+02  0.67306206423E+03  0.46999998093E+01 0. -1.
       -5    1    3    3    0  502  0.15129072657E+03  0.65513934128E+03  0.12483258753E+04  0.14178984524E+04  0.46999998093E+01 0.  1.
</event>
<event>
 5   0  0.1269175E-04  0.1701382E+04  0.7818609E-02  0.8760576E-01
       -2   -1    0    0    0  501  0.00000000000E+00  0.00000000000E+00  0.93719170944E+03  0.93719170944E+03  0.25500000920E-02 0. -1.
        2   -1    0    0  501    0  0.00000000000E+00  0.00000000000E+00 -0.77217452980E+03  0.77217452980E+03  0.25500000920E-02 0.  1.
    10030    2    1    2    0    0  0.00000000000E+00  0.00000000000E+00  0.16501717964E+03  0.17093662392E+04  0.17013824586E+04 0.  0.
        2    1    3    3  502    0  0.64743919378E+02 -0.39381516104E+03 -0.67227793646E+03  0.78181825255E+03  0.25500000920E-02 0.  1.
       -2    1    3    3    0  502 -0.64743919378E+02  0.39381516104E+03  0.83729511611E+03  0.92754798670E+03  0.25500000920E-02 0. -1.
</event>
<event>
 5   0  0.1393870E-04  0.1774386E+04  0.7818609E-02  0.8720040E-01
        2   -1    0    0  501    0  0.00000000000E+00  0.00000000000E+00  0.10440284851E+04  0.10440284851E+04  0.25500000920E-02 0. -1.
       -2   -1    0    0    0  501  0.00000000000E+00  0.00000000000E+00 -0.75391774282E+03  0.75391774283E+03  0.25500000920E-02 0.  1.
    10030    2    1    2    0    0  0.00000000000E+00  0.00000000000E+00  0.29011074227E+03  0.17979462279E+04  0.17743862025E+04 0.  0.
        3    1    3    3  502    0  0.44152500622E+02  0.92850662227E+02  0.10379715961E+04  0.10430511652E+04  0.10100000352E+00 0. -1.
       -3    1    3    3    0  502 -0.44152500622E+02 -0.92850662227E+02 -0.74786085383E+03  0.75489506269E+03  0.10100000352E+00 0.  1.
</event>
<event>
 5   0  0.6539134E-05  0.1706981E+04  0.7818609E-02  0.8757393E-01
       -1   -1    0    0    0  501  0.00000000000E+00  0.00000000000E+00  0.86093984043E+03  0.86093984045E+03  0.50400001928E-02 0.  1.
        1   -1    0    0  501    0  0.00000000000E+00  0.00000000000E+00 -0.84610524215E+03  0.84610524217E+03  0.50400001928E-02 0. -1.
    10030    2    1    2    0    0  0.00000000000E+00  0.00000000000E+00  0.14834598277E+02  0.17070450826E+04  0.17069806234E+04 0.  0.
        2    1    3    3  502    0 -0.70855719614E+03 -0.72565987933E+02  0.47767604718E+03  0.85760919355E+03  0.25500000920E-02 0.  1.
       -2    1    3    3    0  502  0.70855719614E+03  0.72565987933E+02 -0.46284144890E+03  0.84943588907E+03  0.25500000920E-02 0. -1.
</event>
<event>
 5   0  0.6834837E-05  0.1693075E+04  0.7818609E-02  0.8765324E-01
       -1   -1    0    0    0  501  0.00000000000E+00  0.00000000000E+00  0.66029807304E+03  0.66029807306E+03  0.50400001928E-02 0.  1.
        1   -1    0    0  501    0  0.00000000000E+00  0.00000000000E+00 -0.10853062238E+04  0.10853062238E+04  0.50400001928E-02 0. -1.
    10030    2    1    2    0    0  0.00000000000E+00  0.00000000000E+00 -0.42500815072E+03  0.17456042968E+04  0.16930748456E+04 0.  0.
        5    1    3    3  502    0  0.27652706218E+02 -0.84563254471E+03 -0.18437301701E+03  0.86595298500E+03  0.46999998093E+01 0. -1.
       -5    1    3    3    0  502 -0.27652706218E+02  0.84563254471E+03 -0.24063513371E+03  0.87965131183E+03  0.46999998093E+01 0.  1.
</event>
<event>
 5   0  0.1393870E-04  0.1698354E+04  0.7818609E-02  0.8762304E-01
        2   -1    0    0  501    0  0.00000000000E+00  0.00000000000E+00  0.77898990413E+03  0.77898990413E+03  0.25500000920E-02 0. -1.
       -2   -1    0    0    0  501  0.00000000000E+00  0.00000000000E+00 -0.92568755515E+03  0.92568755516E+03  0.25500000920E-02 0.  1.
    10030    2    1    2    0    0  0.00000000000E+00  0.00000000000E+00 -0.14669765103E+03  0.17046774593E+04  0.16983536261E+04 0.  0.
        3    1    3    3  502    0  0.54343059717E+03 -0.54304880233E+03 -0.43647267789E+03  0.88358770046E+03  0.10100000352E+00 0.  1.
       -3    1    3    3    0  502 -0.54343059717E+03  0.54304880233E+03  0.28977502687E+03  0.82108975883E+03  0.10100000352E+00 0. -1.
</event>
<event>
 5   0  0.1393870E-04  0.1699711E+04  0.7818609E-02  0.8761529E-01
       -2   -1    0    0    0  501  0.00000000000E+00  0.00000000000E+00  0.10307324491E+04  0.10307324492E+04  0.25500000920E-02 0.  1.
        2   -1    0    0  501    0  0.00000000000E+00  0.00000000000E+00 -0.70071976137E+03  0.70071976137E+03  0.25500000920E-02 0. -1.
    10030    2    1    2    0    0  0.00000000000E+00  0.00000000000E+00  0.33001268778E+03  0.17314522105E+04  0.16997112647E+04 0.  0.
        3    1    3    3  502    0  0.61380262324E+03 -0.46623777791E+03 -0.19962109441E+03  0.79622855851E+03  0.10100000352E+00 0. -1.
       -3    1    3    3    0  502 -0.61380262324E+03  0.46623777791E+03  0.52963378219E+03  0.93522365202E+03  0.10100000352E+00 0.  1.
</event>
<event>
 5   0  0.1269175E-04  0.1705427E+04  0.7818609E-02  0.8758275E-01
       -2   -1    0    0    0  501  0.00000000000E+00  0.00000000000E+00  0.86900018882E+03  0.86900018882E+03  0.25500000920E-02 0. -1.
        2   -1    0    0  501    0  0.00000000000E+00  0.00000000000E+00 -0.83673206483E+03  0.83673206484E+03  0.25500000920E-02 0.  1.
    10030    2    1    2    0    0  0.00000000000E+00  0.00000000000E+00  0.32268123984E+02  0.17057322537E+04  0.17054270109E+04 0.  0.
        2    1    3    3  502    0 -0.53639489666E+03 -0.57033060656E+03  0.35401672290E+03  0.85925800901E+03  0.25500000920E-02 0. -1.
       -2    1    3    3    0  502  0.53639489666E+03  0.57033060656E+03 -0.32174859892E+03  0.84647424465E+03  0.25500000920E-02 0.  1.
</event>
<event>
 5   0  0.6601906E-05  0.1647742E+04  0.7818609E-02  0.8791743E-01
        1   -1    0    0  501    0  0.00000000000E+00  0.00000000000E+00  0.85314021015E+03  0.85314021017E+03  0.50400001928E-02 0.  1.
       -1   -1    0    0    0  501  0.00000000000E+00  0.00000000000E+00 -0.79560588396E+03  0.79560588398E+03  0.50400001928E-02 0. -1.
    10030    2    1    2    0    0  0.00000000000E+00  0.00000000000E+00  0.57534326191E+02  0.16487460941E+04  0.16477419350E+04 0.  0.
        1    1    3    3  502    0 -0.50065745455E+03  0.62895267609E+03  0.20922122605E+03  0.83067013730E+03  0.50400001928E-02 0. -1.
       -1    1    3    3    0  502  0.50065745455E+03 -0.62895267609E+03 -0.15168689986E+03  0.81807595684E+03  0.50400001928E-02 0.  1.
</event>
<event>
 5   0  0.1285639E-04  0.1695687E+04  0.7818609E-02  0.8763828E-01
        2   -1    0    0  501    0  0.00000000000E+00  0.00000000000E+00  0.20345362650E+04  0.20345362650E+04  0.25500000920E-02 0. -1.
       -2   -1    0    0    0  501  0.00000000000E+00  0.00000000000E+00 -0.35331821121E+03  0.35331821122E+03  0.25500000920E-02 0.  1.
    10030    2    1    2    0    0  0.00000000000E+00  0.00000000000E+00  0.16812180538E+04  0.23878544762E+04  0.16956871336E+04 0.  0.
        4    1    3    3  502    0  0.40751581106E+03 -0.21765552099E+03  0.18417083980E+04  0.18987718394E+04  0.12699999809E+01 0. -1.
       -4    1    3    3    0  502 -0.40751581106E+03  0.21765552099E+03 -0.16049034424E+03  0.48908263676E+03  0.12699999809E+01 0.  1.
</event>
<event>
 5   0  0.1393870E-04  0.1692583E+04  0.7818609E-02  0.8765606E-01
        2   -1    0    0  501    0  0.00000000000E+00  0.00000000000E+00  0.21574861667E+04  0.21574861667E+04  0.25500000920E-02 0. -1.
       -2   -1    0    0    0  501  0.00000000000E+00  0.00000000000E+00 -0.33196463444E+03  0.33196463445E+03  0.25500000920E-02 0.  1.
    10030    2    1    2    0    0  0.00000000000E+00  0.00000000000E+00  0.18255215323E+04  0.24894508012E+04  0.16925827680E+04 0.  0.
        3    1    3    3  502    0 -0.30335743140E+03  0.75764708310E+03  0.12421486030E+04  0.14862664619E+04  0.10100000352E+00 0.  1.
       -3    1    3    3    0  502  0.30335743140E+03 -0.75764708310E+03  0.58337292931E+03  0.10031843393E+04  0.10100000352E+00 0. -1.
</event>
<event>
 5   0  0.6539134E-05  0.1681273E+04  0.7818609E-02  0.8772118E-01
        1   -1    0    0  501    0  0.00000000000E+00  0.00000000000E+00  0.16351307529E+04  0.16351307529E+04  0.50400001928E-02 0. -1.
       -1   -1    0    0    0  501  0.00000000000E+00  0.00000000000E+00 -0.43217910585E+03  0.43217910588E+03  0.50400001928E-02 0.  1.
    10030    2    1    2    0    0  0.00000000000E+00  0.00000000000E+00  0.12029516470E+04  0.20673098588E+04  0.16812725499E+04 0.  0.
        2    1    3    3  502    0 -0.20074964513E+03 -0.65059311297E+03 -0.47825147919E+01  0.68087788268E+03  0.25500000920E-02 0.  1.
       -2    1    3    3    0  502  0.20074964513E+03  0.65059311297E+03  0.12077341618E+04  0.13864319761E+04  0.25500000920E-02 0. -1.
</event>
<event>
 5   0  0.6601906E-05  0.1692367E+04  0.7818609E-02  0.8765730E-01
       -1   -1    0    0    0  501  0.00000000000E+00  0.00000000000E+00  0.62001438731E+03  0.62001438733E+03  0.50400001928E-02 0.  1.
        1   -1    0    0  501    0  0.00000000000E+00  0.00000000000E+00 -0.11548541556E+04  0.11548541556E+04  0.50400001928E-02 0. -1.
    10030    2    1    2    0    0  0.00000000000E+00  0.00000000000E+00 -0.53483976832E+03  0.17748685430E+04  0.16923666172E+04 0.  0.
        1    1    3    3  502    0 -0.26032115987E+03  0.80025631029E+03 -0.36033294881E+03  0.91543274054E+03  0.50400001928E-02 0. -1.
       -1    1    3    3    0  502  0.26032115987E+03 -0.80025631029E+03 -0.17450681950E+03  0.85943580243E+03  0.50400001928E-02 0.  1.
</event>
<event>
 5   0  0.1255362E-04  0.1696665E+04  0.7818609E-02  0.8763268E-01
        2   -1    0    0  501    0  0.00000000000E+00  0.00000000000E+00  0.25568439673E+04  0.25568439673E+04  0.25500000920E-02 0. -1.
       -2   -1    0    0    0  501  0.00000000000E+00  0.00000000000E+00 -0.28146745171E+03  0.28146745172E+03  0.25500000920E-02 0.  1.
    10030    2    1    2    0    0  0.00000000000E+00  0.00000000000E+00  0.22753765156E+04  0.28383114190E+04  0.16966653835E+04 0.  0.
        1    1    3    3  502    0 -0.25310742642E+03  0.68006796295E+03  0.18728266383E+04  0.20084908316E+04  0.50400001928E-02 0. -1.
       -1    1    3    3    0  502  0.25310742642E+03 -0.68006796295E+03  0.40254987728E+03  0.82982058740E+03  0.50400001928E-02 0.  1.
</event>
<event>
 5   0  0.6834837E-05  0.1700267E+04  0.7818609E-02  0.8761212E-01
       -1   -1    0    0    0  501  0.00000000000E+00  0.00000000000E+00  0.11343540805E+04  0.11343540805E+04  0.50400001928E-02 0. -1.
        1   -1    0    0  501    0  0.00000000000E+00  0.00000000000E+00 -0.63712666397E+03  0.63712666399E+03  0.50400001928E-02 0.  1.
    10030    2    1    2    0    0  0.00000000000E+00  0.00000000000E+00  0.49722741650E+03  0.17714807445E+04  0.17002673097E+04 0.  0.
        5    1    3    3  502    0 -0.60529966991E+03 -0.47527902951E+03 -0.12765965429E+03  0.78012622287E+03  0.46999998093E+01 0.  1.
       -5    1    3    3    0  502  0.60529966991E+03  0.47527902951E+03  0.62488707079E+03  0.99135452161E+03  0.46999998093E+01 0. -1.
</event>
<event>
 5   0  0.6601906E-05  0.1704094E+04  0.7818609E-02  0.8759033E-01
       -1   -1    0    0    0  501  0.00000000000E+00  0.00000000000E+00  0.79692422249E+03  0.79692422251E+03  0.50400001928E-02 0.  1.
        1   -1    0    0  501    0  0.00000000000E+00  0.00000000000E+00 -0.91098276863E+03  0.91098276864E+03  0.50400001928E-02 0. -1.
    10030    2    1    2    0    0  0.00000000000E+00  0.00000000000E+00 -0.11405854614E+03  0.17079069911E+04  0.17040941695E+04 0.  0.
        1    1    3    3  502    0  0.15798924408E+03 -0.83670139852E+03 -0.26066736284E+02  0.85188573547E+03  0.50400001928E-02 0.  1.
       -1    1    3    3    0  502 -0.15798924408E+03  0.83670139852E+03 -0.87991809855E+02  0.85602125567E+03  0.50400001928E-02 0. -1.
</event>
<event>
 5   0  0.1393870E-04  0.1712835E+04  0.7818609E-02  0.8754078E-01
       -2   -1    0    0    0  501  0.00000000000E+00  0.00000000000E+00  0.55255714886E+03  0.55255714887E+03  0.25500000920E-02 0. -1.
        2   -1    0    0  501    0  0.00000000000E+00  0.00000000000E+00 -0.13273750013E+04  0.13273750013E+04  0.25500000920E-02 0.  1.
    10030    2    1    2    0    0  0.00000000000E+00  0.00000000000E+00 -0.77481785239E+03  0.18799321501E+04  0.17128345468E+04 0.  0.
        3    1    3    3  502    0  0.77730279153E+03 -0.72361022962E+02 -0.89646517732E+00  0.78066417954E+03  0.10100000352E+00 0.  1.
       -3    1    3    3    0  502 -0.77730279153E+03  0.72361022962E+02 -0.77392138721E+03  0.10992679706E+04  0.10100000352E+00 0. -1.
</event>
<event>
 5   0  0.6601906E-05  0.1709132E+04  0.7818609E-02  0.8756173E-01
        1   -1    0    0  501    0  0.00000000000E+00  0.00000000000E+00  0.20692017410E+04  0.20692017410E+04  0.50400001928E-02 0.  1.
       -1   -1    0    0    0  501  0.00000000000E+00  0.00000000000E+00 -0.35292983228E+03  0.35292983232E+03  0.50400001928E-02 0. -1.
    10030    2    1    2    0    0  0.00000000000E+00  0.00000000000E+00  0.17162719087E+04  0.24221315733E+04  0.17091319709E+04 0.  0.
        1    1    3    3  502    0  0.38020979817E+03  0.74688386625E+03  0.62147260971E+03  0.10433710773E+04  0.50400001928E-02 0. -1.
       -1    1    3    3    0  502 -0.38020979817E+03 -0.74688386625E+03  0.10947992990E+04  0.13787604960E+04  0.50400001928E-02 0.  1.
</event>
<event>
 5   0  0.6601906E-05  0.1701396E+04  0.7818609E-02  0.8760568E-01
       -1   -1    0    0    0  501  0.00000000000E+00  0.00000000000E+00  0.77373725736E+03  0.77373725738E+03  0.50400001928E-02 0.  1.
        1   -1    0    0  501    0  0.00000000000E+00  0.00000000000E+00 -0.93531420922E+03  0.93531420924E+03  0.50400001928E-02 0. -1.
    10030    2    1    2    0    0  0.00000000000E+00  0.00000000000E+00 -0.16157695186E+03  0.17090514666E+04  0.17013964277E+04 0.  0.
        1    1    3    3  502    0  0.49800726062E+03  0.62617779399E+03  0.20961014251E+03  0.82707089973E+03  0.50400001928E-02 0. -1.
       -1    1    3    3    0  502 -0.49800726062E+03 -0.62617779399E+03 -0.37118709437E+03  0.88198056689E+03  0.50400001928E-02 0.  1.
</event>
<event>
 5   0  0.6539134E-05  0.1706104E+04  0.7818609E-02  0.8757890E-01
       -1   -1    0    0    0  501  0.00000000000E+00  0.00000000000E+00  0.68120293975E+03  0.68120293977E+03  0.50400001928E-02 0.  1.
        1   -1    0    0  501    0  0.00000000000E+00  0.00000000000E+00 -0.10682543895E+04  0.10682543895E+04  0.50400001928E-02 0. -1.
    10030    2    1    2    0    0  0.00000000000E+00  0.00000000000E+00 -0.38705144975E+03  0.17494573293E+04  0.17061043703E+04 0.  0.
        2    1    3    3  502    0 -0.59832121949E+03 -0.23078253765E+03  0.38330679784E+03  0.74710973937E+03  0.25500000920E-02 0.  1.
       -2    1    3    3    0  502  0.59832121949E+03  0.23078253765E+03 -0.77035824759E+03  0.10023475899E+04  0.25500000920E-02 0. -1.
</event>
<event>
 5   0  0.1255362E-04  0.1702895E+04  0.7818609E-02  0.8759715E-01
        2   -1    0    0  501    0  0.00000000000E+00  0.00000000000E+00  0.12854334828E+04  0.12854334828E+04  0.25500000920E-02 0.  1.
       -2   -1    0    0    0  501  0.00000000000E+00  0.00000000000E+00 -0.56398295074E+03  0.56398295075E+03  0.25500000920E-02 0. -1.
    10030    2    1    2    0    0  0.00000000000E+00  0.00000000000E+00  0.72145053203E+03  0.18494164335E+04  0.17028946751E+04 0.  0.
        1    1    3    3  502    0  0.34593359490E+03 -0.68777704300E+03  0.75568552094E+03  0.10787807560E+04  0.50400001928E-02 0.  1.
       -1    1    3    3    0  502 -0.34593359490E+03  0.68777704300E+03 -0.34234988908E+02  0.77063567751E+03  0.50400001928E-02 0. -1.
</event>
<event>
 5   0  0.4720875E-05  0.1685389E+04  0.7818609E-02  0.8769742E-01
       -3   -1    0    0    0  501  0.00000000000E+00  0.00000000000E+00  0.66768706208E+03  0.66768706971E+03  0.10100000352E+00 0.  1.
        3   -1    0    0  501    0  0.00000000000E+00  0.00000000000E+00 -0.10635730985E+04  0.10635731033E+04  0.10100000352E+00 0. -1.
    10030    2    1    2    0    0  0.00000000000E+00  0.00000000000E+00 -0.39588603640E+03  0.17312601730E+04  0.16853889856E+04 0.  0.
        1    1    3    3  502    0  0.43121633100E+03  0.31582633743E+03  0.47127934720E+03  0.71259948263E+03  0.50400001928E-02 0.  1.
       -1    1    3    3    0  502 -0.43121633100E+03 -0.31582633743E+03 -0.86716538360E+03  0.10186606904E+04  0.50400001928E-02 0. -1.
</event>
<event>
 5   0  0.1393870E-04  0.1710360E+04  0.7818609E-02  0.8755477E-01
       -2   -1    0    0    0  501  0.00000000000E+00  0.00000000000E+00  0.93239422422E+03  0.93239422423E+03  0.25500000920E-02 0.  1.
        2   -1    0    0  501    0  0.00000000000E+00  0.00000000000E+00 -0.78436054692E+03  0.78436054692E+03  0.25500000920E-02 0. -1.
    10030    2    1    2    0    0  0.00000000000E+00  0.00000000000E+00  0.14803367730E+03  0.17167547711E+04  0.17103604809E+04 0.  0.
        3    1    3    3  502    0 -0.81939221706E+03 -0.20611883211E+03 -0.58555160054E+02  0.84694586326E+03  0.10100000352E+00 0. -1.
       -3    1    3    3    0  502  0.81939221706E+03  0.20611883211E+03  0.20658883736E+03  0.86980890789E+03  0.10100000352E+00 0.  1.
</event>
<event>
 5   0  0.1269175E-04  0.1700447E+04  0.7818609E-02  0.8761109E-01
        2   -1    0    0  501    0  0.00000000000E+00  0.00000000000E+00  0.53917962376E+03  0.53917962377E+03  0.25500000920E-02 0. -1.
       -2   -1    0    0    0  501  0.00000000000E+00  0.00000000000E+00 -0.13407035817E+04  0.13407035817E+04  0.25500000920E-02 0.  1.
    10030    2    1    2    0    0  0.00000000000E+00  0.00000000000E+00 -0.80152395791E+03  0.18798832054E+04  0.17004470621E+04 0.  0.
        2    1    3    3  502    0  0.22722078883E+03 -0.55105962034E+03  0.26950231956E+03  0.65416167138E+03  0.25500000920E-02 0. -1.
       -2    1    3    3    0  502 -0.22722078883E+03  0.55105962034E+03 -0.10710262775E+04  0.12257215341E+04  0.25500000920E-02 0.  1.
</event>
<event>
 5   0  0.1285639E-04  0.1690961E+04  0.7818609E-02  0.8766537E-01
       -2   -1    0    0    0  501  0.00000000000E+00  0.00000000000E+00  0.46475507262E+03  0.46475507263E+03  0.25500000920E-02 0. -1.
        2   -1    0    0  501    0  0.00000000000E+00  0.00000000000E+00 -0.15380943146E+04  0.15380943146E+04  0.25500000920E-02 0.  1.
    10030    2    1    2    0    0  0.00000000000E+00  0.00000000000E+00 -0.10733392420E+04  0.20028493872E+04  0.16909608332E+04 0.  0.
        4    1    3    3  502    0  0.43396168498E+03  0.32492408761E+03  0.23179407231E+03  0.58960029817E+03  0.12699999809E+01 0. -1.
       -4    1    3    3    0  502 -0.43396168498E+03 -0.32492408761E+03 -0.13051333143E+04  0.14132490890E+04  0.12699999809E+01 0.  1.
</event>
<event>
 5   0  0.1393870E-04  0.1706015E+04  0.7818609E-02  0.8757941E-01
        2   -1    0    0  501    0  0.00000000000E+00  0.00000000000E+00  0.22663462717E+04  0.22663462717E+04  0.25500000920E-02 0.  1.
       -2   -1    0    0    0  501  0.00000000000E+00  0.00000000000E+00 -0.32105490760E+03  0.32105490761E+03  0.25500000920E-02 0. -1.
    10030    2    1    2    0    0  0.00000000000E+00  0.00000000000E+00  0.19452913641E+04  0.25874011793E+04  0.17060147630E+04 0.  0.
        3    1    3    3  502    0 -0.44017409789E+03 -0.31546233122E+03 -0.26898122090E+02  0.54221143297E+03  0.10100000352E+00 0. -1.
       -3    1    3    3    0  502  0.44017409789E+03  0.31546233122E+03  0.19721894862E+04  0.20451897463E+04  0.10100000352E+00 0.  1.
</event>
<event>
 5   0  0.6601906E-05  0.1702771E+04  0.7818609E-02  0.8759785E-01
       -1   -1    0    0    0  501  0.00000000000E+00  0.00000000000E+00  0.10163232450E+04  0.10163232450E+04  0.50400001928E-02 0. -1.
        1   -1    0    0  501    0  0.00000000000E+00  0.00000000000E+00 -0.71321537158E+03  0.71321537160E+03  0.50400001928E-02 0.  1.
    10030    2    1    2    0    0  0.00000000000E+00  0.00000000000E+00  0.30310787339E+03  0.17295386166E+04  0.17027711071E+04 0.  0.
        1    1    3    3  502    0 -0.46300062397E+03 -0.31431708669E+03 -0.50016523361E+03  0.75055317581E+03  0.50400001928E-02 0.  1.
       -1    1    3    3    0  502  0.46300062397E+03  0.31431708669E+03  0.80327310700E+03  0.97898544077E+03  0.50400001928E-02 0. -1.
</event>
<event>
 5   0  0.4720875E-05  0.1700866E+04  0.7818609E-02  0.8760870E-01
       -3   -1    0    0    0  501  0.00000000000E+00  0.00000000000E+00  0.91727583040E+03  0.91727583596E+03  0.10100000352E+00 0.  1.
        3   -1    0    0  501    0  0.00000000000E+00  0.00000000000E+00 -0.78846129343E+03  0.78846129990E+03  0.10100000352E+00 0. -1.
    10030    2    1    2    0    0  0.00000000000E+00  0.00000000000E+00  0.12881453697E+03  0.17057371359E+04  0.17008662474E+04 0.  0.
        1    1    3    3  502    0  0.21651701129E+03 -0.61173574183E+03  0.61565062565E+03  0.89449758351E+03  0.50400001928E-02 0.  1.
       -1    1    3    3    0  502 -0.21651701129E+03  0.61173574183E+03 -0.48683608868E+03  0.81123955234E+03  0.50400001928E-02 0. -1.
</event>
<event>
 5   0  0.1285639E-04  0.1699491E+04  0.7818609E-02  0.8761654E-01
       -2   -1    0    0    0  501  0.00000000000E+00  0.00000000000E+00  0.12010491740E+04  0.12010491740E+04  0.25500000920E-02 0. -1.
        2   -1    0    0  501    0  0.00000000000E+00  0.00000000000E+00 -0.60119750083E+03  0.60119750084E+03  0.25500000920E-02 0.  1.
    10030    2    1    2    0    0  0.00000000000E+00  0.00000000000E+00  0.59985167321E+03  0.18022466749E+04  0.16994914084E+04 0.  0.
        4    1    3    3  502    0  0.17557242412E+03  0.69529857224E+03  0.78333893749E+03  0.10620203786E+04  0.12699999809E+01 0. -1.
       -4    1    3    3    0  502 -0.17557242412E+03 -0.69529857224E+03 -0.18348726427E+03  0.74022629629E+03  0.12699999809E+01 0.  1.
</event>
<event>
 5   0  0.1269175E-04  0.1703670E+04  0.7818609E-02  0.8759274E-01
       -2   -1    0    0    0  501  0.00000000000E+00  0.00000000000E+00  0.70432148248E+03  0.70432148248E+03  0.25500000920E-02 0. -1.
        2   -1    0    0  501    0  0.00000000000E+00  0.00000000000E+00 -0.10302437327E+04  0.10302437327E+04  0.25500000920E-02 0.  1.
    10030    2    1    2    0    0  0.00000000000E+00  0.00000000000E+00 -0.32592225024E+03  0.17345652152E+04  0.17036699130E+04 0.  0.
        2    1    3    3  502    0 -0.70646874695E+03  0.16265527235E+03 -0.61836210056E+03  0.95285178042E+03  0.25500000920E-02 0.  1.
       -2    1    3    3    0  502  0.70646874695E+03 -0.16265527235E+03  0.29243985032E+03  0.78171343477E+03  0.25500000920E-02 0. -1.
</event>
<event>
 5   0  0.6539134E-05  0.1706622E+04  0.7818609E-02  0.8757597E-01
       -1   -1    0    0    0  501  0.00000000000E+00  0.00000000000E+00  0.84150094586E+03  0.84150094588E+03  0.50400001928E-02 0.  1.
        1   -1    0    0  501    0  0.00000000000E+00  0.00000000000E+00 -0.86528646368E+03  0.86528646369E+03  0.50400001928E-02 0. -1.
    10030    2    1    2    0    0  0.00000000000E+00  0.00000000000E+00 -0.23785517817E+02  0.17067874096E+04  0.17066216659E+04 0.  0.
        2    1    3    3  502    0 -0.38964456663E+03  0.59520171432E+03 -0.48316183393E+03  0.85996123564E+03  0.25500000920E-02 0. -1.
       -2    1    3    3    0  502  0.38964456663E+03 -0.59520171432E+03  0.45937631612E+03  0.84682617393E+03  0.25500000920E-02 0.  1.
</event>
<event>
 5   0  0.6539134E-05  0.1702188E+04  0.7818609E-02  0.8760117E-01
       -1   -1    0    0    0  501  0.00000000000E+00  0.00000000000E+00  0.55146615962E+03  0.55146615964E+03  0.50400001928E-02 0.  1.
        1   -1    0    0  501    0  0.00000000000E+00  0.00000000000E+00 -0.13135190804E+04  0.13135190804E+04  0.50400001928E-02 0. -1.
    10030    2    1    2    0    0  0.00000000000E+00  0.00000000000E+00 -0.76205292081E+03  0.18649852401E+04  0.17021883831E+04 0.  0.
        2    1    3    3  502    0 -0.42878552930E+03  0.73207590815E+03 -0.30696609685E+03  0.90223076319E+03  0.25500000920E-02 0. -1.
       -2    1    3    3    0  502  0.42878552930E+03 -0.73207590815E+03 -0.45508682397E+03  0.96275447690E+03  0.25500000920E-02 0.  1.
</event>
<event>
 5   0  0.1255362E-04  0.1702097E+04  0.7818609E-02  0.8760169E-01
       -2   -1    0    0    0  501  0.00000000000E+00  0.00000000000E+00  0.44326026417E+03  0.44326026418E+03  0.25500000920E-02 0. -1.
        2   -1    0    0  501    0  0.00000000000E+00  0.00000000000E+00 -0.16339920678E+04  0.16339920678E+04  0.25500000920E-02 0.  1.
    10030    2    1    2    0    0  0.00000000000E+00  0.00000000000E+00 -0.11907318036E+04  0.20772523319E+04  0.17020972424E+04 0.  0.
        1    1    3    3  502    0  0.48459668677E+03 -0.17846360476E+03  0.23019317228E+03  0.56539552850E+03  0.50400001928E-02 0. -1.
       -1    1    3    3    0  502 -0.48459668677E+03  0.17846360476E+03 -0.14209249759E+04  0.15118568034E+04  0.50400001928E-02 0.  1.
</event>
<event>
 5   0  0.6601906E-05  0.1685845E+04  0.7818609E-02  0.8769479E-01
       -1   -1    0    0    0  501  0.00000000000E+00  0.00000000000E+00  0.64883991147E+03  0.64883991149E+03  0.50400001928E-02 0.  1.
        1   -1    0    0  501    0  0.00000000000E+00  0.00000000000E+00 -0.10950591258E+04  0.10950591258E+04  0.50400001928E-02 0. -1.
    10030    2    1    2    0    0  0.00000000000E+00  0.00000000000E+00 -0.44621921430E+03  0.17438990373E+04  0.16858446740E+04 0.  0.
        1    1    3    3  502    0 -0.46607027674E+03 -0.65934891935E+03  0.27205966734E+02  0.80790015779E+03  0.50400001928E-02 0.  1.
       -1    1    3    3    0  502  0.46607027674E+03  0.65934891935E+03 -0.47342518103E+03  0.93599887947E+03  0.50400001928E-02 0. -1.
</event>
<event>
 5   0  0.6834837E-05  0.1691923E+04  0.7818609E-02  0.8765984E-01
       -1   -1    0    0    0  501  0.00000000000E+00  0.00000000000E+00  0.40408238214E+03  0.40408238218E+03  0.50400001928E-02 0.  1.
        1   -1    0    0  501    0  0.00000000000E+00  0.00000000000E+00 -0.17710518987E+04  0.17710518987E+04  0.50400001928E-02 0. -1.
    10030    2    1    2    0    0  0.00000000000E+00  0.00000000000E+00 -0.13669695166E+04  0.21751342809E+04  0.16919230127E+04 0.  0.
        5    1    3    3  502    0  0.31990578969E+03 -0.19266989609E+03 -0.16593274364E+04  0.17008383328E+04  0.46999998093E+01 0. -1.
       -5    1    3    3    0  502 -0.31990578969E+03  0.19266989609E+03  0.29235791981E+03  0.47429594812E+03  0.46999998093E+01 0.  1.
</event>
<event>
 5   0  0.6601906E-05  0.1679449E+04  0.7818609E-02  0.8773173E-01
       -1   -1    0    0    0  501  0.00000000000E+00  0.00000000000E+00  0.61039354365E+03  0.61039354367E+03  0.50400001928E-02 0.  1.
        1   -1    0    0  501    0  0.00000000000E+00  0.00000000000E+00 -0.11552176856E+04  0.11552176856E+04  0.50400001928E-02 0. -1.
    10030    2    1    2    0    0  0.00000000000E+00  0.00000000000E+00 -0.54482414194E+03  0.17656112293E+04  0.16794492155E+04 0.  0.
        1    1    3    3  502    0 -0.63300333401E+03  0.44780156819E+03  0.66489431999E+02  0.77822895727E+03  0.50400001928E-02 0.  1.
       -1    1    3    3    0  502  0.63300333401E+03 -0.44780156819E+03 -0.61131357394E+03  0.98738227200E+03  0.50400001928E-02 0. -1.
</event>
<event>
 5   0  0.6615842E-05  0.1676362E+04  0.7818609E-02  0.8774962E-01
        1   -1    0    0  501    0  0.00000000000E+00  0.00000000000E+00  0.10162427852E+04  0.10162427852E+04  0.50400001928E-02 0. -1.
       -1   -1    0    0    0  501  0.00000000000E+00  0.00000000000E+00 -0.69131859939E+03  0.69131859941E+03  0.50400001928E-02 0.  1.
    10030    2    1    2    0    0  0.00000000000E+00  0.00000000000E+00  0.32492418580E+03  0.17075613846E+04  0.16763621791E+04 0.  0.
        3    1    3    3  502    0 -0.59874958629E+03  0.54235688776E+03 -0.65068092586E+02  0.81048499533E+03  0.10100000352E+00 0.  1.
       -3    1    3    3    0  502  0.59874958629E+03 -0.54235688776E+03  0.38999227839E+03  0.89707638927E+03  0.10100000352E+00 0. -1.
</event>
<event>
 5   0  0.1393870E-04  0.1680257E+04  0.7818609E-02  0.8772705E-01
        2   -1    0    0  501    0  0.00000000000E+00  0.00000000000E+00  0.70415951477E+03  0.70415951478E+03  0.25500000920E-02 0.  1.
       -2   -1    0    0    0  501  0.00000000000E+00  0.00000000000E+00 -0.10023519366E+04  0.10023519366E+04  0.25500000920E-02 0. -1.
    10030    2    1    2    0    0  0.00000000000E+00  0.00000000000E+00 -0.29819242185E+03  0.17065114514E+04  0.16802567105E+04 0.  0.
        3    1    3    3  502    0 -0.68732204345E+03  0.21529636509E+03 -0.58834866567E+03  0.93000982728E+03  0.10100000352E+00 0. -1.
       -3    1    3    3    0  502  0.68732204345E+03 -0.21529636509E+03  0.29015624382E+03  0.77650162413E+03  0.10100000352E+00 0.  1.
</event>
<event>
 5   0  0.1255362E-04  0.1698320E+04  0.7818609E-02  0.8762323E-01
        2   -1    0    0  501    0  0.00000000000E+00  0.00000000000E+00  0.12388990355E+04  0.12388990355E+04  0.25500000920E-02 0.  1.
       -2   -1    0    0    0  501  0.00000000000E+00  0.00000000000E+00 -0.58202721592E+03  0.58202721593E+03  0.25500000920E-02 0. -1.
    10030    2    1    2    0    0  0.00000000000E+00  0.00000000000E+00  0.65687181953E+03  0.18209262514E+04  0.16983202954E+04 0.  0.
        1    1    3    3  502    0  0.57771233486E+03 -0.61465852024E+03  0.43303002038E+03  0.94819388151E+03  0.50400001928E-02 0.  1.
       -1    1    3    3    0  502 -0.57771233486E+03  0.61465852024E+03  0.22384179916E+03  0.87273236988E+03  0.50400001928E-02 0. -1.
</event>
<event>
 5   0  0.4720875E-05  0.1714693E+04  0.7818609E-02  0.8753028E-01
       -3   -1    0    0    0  501  0.00000000000E+00  0.00000000000E+00  0.52891822014E+03  0.52891822978E+03  0.10100000352E+00 0. -1.
        3   -1    0    0  501    0  0.00000000000E+00  0.00000000000E+00 -0.13897109397E+04  0.13897109434E+04  0.10100000352E+00 0.  1.
    10030    2    1    2    0    0  0.00000000000E+00  0.00000000000E+00 -0.86079271960E+03  0.19186291732E+04  0.17146934998E+04 0.  0.
        3    1    3    3  502    0 -0.30178923045E+03 -0.73023309556E+03 -0.80272803721E+03  0.11263611434E+04  0.10100000352E+00 0.  1.
       -3    1    3    3    0  502  0.30178923045E+03  0.73023309556E+03 -0.58064682391E+02  0.79226802978E+03  0.10100000352E+00 0. -1.
</event>
<event>
 5   0  0.1285639E-04  0.1698360E+04  0.7818609E-02  0.8762300E-01
       -2   -1    0    0    0  501  0.00000000000E+00  0.00000000000E+00  0.54441154524E+03  0.54441154525E+03  0.25500000920E-02 0.  1.
        2   -1    0    0  501    0  0.00000000000E+00  0.00000000000E+00 -0.13245611375E+04  0.13245611375E+04  0.25500000920E-02 0. -1.
    10030    2    1    2    0    0  0.00000000000E+00  0.00000000000E+00 -0.78014959229E+03  0.18689726828E+04  0.16983596506E+04 0.  0.
        4    1    3    3  502    0 -0.97870962399E+02 -0.13093609797E+03  0.52693177422E+03  0.55170797947E+03  0.12699999809E+01 0.  1.
       -4    1    3    3    0  502  0.97870962399E+02  0.13093609797E+03 -0.13070813665E+04  0.13172647033E+04  0.12699999809E+01 0. -1.
</event>
<event>
 5   0  0.6539134E-05  0.1713340E+04  0.7818609E-02  0.8753792E-01
        1   -1    0    0  501    0  0.00000000000E+00  0.00000000000E+00  0.18140043573E+04  0.18140043573E+04  0.50400001928E-02 0. -1.
       -1   -1    0    0    0  501  0.00000000000E+00  0.00000000000E+00 -0.40456544933E+03  0.40456544936E+03  0.50400001928E-02 0.  1.
    10030    2    1    2    0    0  0.00000000000E+00  0.00000000000E+00  0.14094389080E+04  0.22185698067E+04  0.17133399989E+04 0.  0.
        2    1    3    3  502    0  0.38831858441E+03  0.34737222679E+03  0.15852614152E+04  0.16686858726E+04  0.25500000920E-02 0. -1.
       -2    1    3    3    0  502 -0.38831858441E+03 -0.34737222679E+03 -0.17582250718E+03  0.54988393410E+03  0.25500000920E-02 0.  1.
</event>
<event>
 5   0  0.1333546E-04  0.1704221E+04  0.7818609E-02  0.8758961E-01
        2   -1    0    0  501    0  0.00000000000E+00  0.00000000000E+00  0.89579676499E+03  0.89579676499E+03  0.25500000920E-02 0.  1.
       -2   -1    0    0    0  501  0.00000000000E+00  0.00000000000E+00 -0.81055450149E+03  0.81055450149E+03  0.25500000920E-02 0. -1.
    10030    2    1    2    0    0  0.00000000000E+00  0.00000000000E+00  0.85242263498E+02  0.17063512665E+04  0.17042207607E+04 0.  0.
        5    1    3    3  502    0 -0.83859009728E+03 -0.12345418038E+03  0.12988353839E+03  0.85753490276E+03  0.46999998093E+01 0. -1.
       -5    1    3    3    0  502  0.83859009728E+03  0.12345418038E+03 -0.44641274889E+02  0.84881636373E+03  0.46999998093E+01 0.  1.
</event>
<event>
 5   0  0.1333546E-04  0.1704942E+04  0.7818609E-02  0.8758551E-01
       -2   -1    0    0    0  501  0.00000000000E+00  0.00000000000E+00  0.82418099427E+03  0.82418099427E+03  0.25500000920E-02 0.  1.
        2   -1    0    0  501    0  0.00000000000E+00  0.00000000000E+00 -0.88173220602E+03  0.88173220602E+03  0.25500000920E-02 0. -1.
    10030    2    1    2    0    0  0.00000000000E+00  0.00000000000E+00 -0.57551211748E+02  0.17059132003E+04  0.17049421412E+04 0.  0.
        5    1    3    3  502    0  0.84018443208E+03  0.11491519505E+03 -0.11582776940E+03  0.85589341867E+03  0.46999998093E+01 0. -1.
       -5    1    3    3    0  502 -0.84018443208E+03 -0.11491519505E+03  0.58276557650E+02  0.85001978162E+03  0.46999998093E+01 0.  1.
</event>
<event>
 5   0  0.1393870E-04  0.1699909E+04  0.7818609E-02  0.8761416E-01
       -2   -1    0    0    0  501  0.00000000000E+00  0.00000000000E+00  0.72103199934E+03  0.72103199934E+03  0.25500000920E-02 0.  1.
        2   -1    0    0  501    0  0.00000000000E+00  0.00000000000E+00 -0.10019282571E+04  0.10019282571E+04  0.25500000920E-02 0. -1.
    10030    2    1    2    0    0  0.00000000000E+00  0.00000000000E+00 -0.28089625777E+03  0.17229602564E+04  0.16999086263E+04 0.  0.
        3    1    3    3  502    0  0.51263489940E+03  0.67060450071E+03 -0.39511608495E+02  0.84502432738E+03  0.10100000352E+00 0.  1.
       -3    1    3    3    0  502 -0.51263489940E+03 -0.67060450071E+03 -0.24138464927E+03  0.87793592907E+03  0.10100000352E+00 0. -1.
</event>
<event>
 5   0  0.1333546E-04  0.1705991E+04  0.7818609E-02  0.8757955E-01
       -2   -1    0    0    0  501  0.00000000000E+00  0.00000000000E+00  0.84317234338E+03  0.84317234338E+03  0.25500000920E-02 0. -1.
        2   -1    0    0  501    0  0.00000000000E+00  0.00000000000E+00 -0.86293300333E+03  0.86293300334E+03  0.25500000920E-02 0.  1.
    10030    2    1    2    0    0  0.00000000000E+00  0.00000000000E+00 -0.19760659956E+02  0.17061053467E+04  0.17059909057E+04 0.  0.
        5    1    3    3  502    0  0.10785630678E+03 -0.58183266587E+03 -0.62426421320E+03  0.86016866477E+03  0.46999998093E+01 0.  1.
       -5    1    3    3    0  502 -0.10785630678E+03  0.58183266587E+03  0.60450355324E+03  0.84593668195E+03  0.46999998093E+01 0. -1.
</event>
<event>
 5   0  0.1269175E-04  0.1718235E+04  0.7818609E-02  0.8751032E-01
       -2   -1    0    0    0  501  0.00000000000E+00  0.00000000000E+00  0.52368080918E+03  0.52368080919E+03  0.25500000920E-02 0.  1.
        2   -1    0    0  501    0  0.00000000000E+00  0.00000000000E+00 -0.14094142029E+04  0.14094142029E+04  0.25500000920E-02 0. -1.
    10030    2    1    2    0    0  0.00000000000E+00  0.00000000000E+00 -0.88573339376E+03  0.19330950121E+04  0.17182353393E+04 0.  0.
        2    1    3    3  502    0 -0.36226126547E+03 -0.71946142680E+03 -0.77892476088E+03  0.11205274438E+04  0.25500000920E-02 0.  1.
       -2    1    3    3    0  502  0.36226126547E+03  0.71946142680E+03 -0.10680863288E+03  0.81256756837E+03  0.25500000920E-02 0. -1.
</event>
<event>
 5   0  0.1333546E-04  0.1683676E+04  0.7818609E-02  0.8770729E-01
        2   -1    0    0  501    0  0.00000000000E+00  0.00000000000E+00  0.68009768501E+03  0.68009768502E+03  0.25500000920E-02 0. -1.
       -2   -1    0    0    0  501  0.00000000000E+00  0.00000000000E+00 -0.10420437058E+04  0.10420437058E+04  0.25500000920E-02 0.  1.
    10030    2    1    2    0    0  0.00000000000E+00  0.00000000000E+00 -0.36194602077E+03  0.17221413908E+04  0.16836763489E+04 0.  0.
        5    1    3    3  502    0 -0.12063311885E+03 -0.76060678786E+03  0.16678614031E+03  0.78798143487E+03  0.46999998093E+01 0. -1.
       -5    1    3    3    0  502  0.12063311885E+03  0.76060678786E+03 -0.52873216108E+03  0.93415995593E+03  0.46999998093E+01 0.  1.
</event>
<event>
 5   0  0.1269175E-04  0.1698760E+04  0.7818609E-02  0.8762072E-01
        2   -1    0    0  501    0  0.00000000000E+00  0.00000000000E+00  0.14986815983E+04  0.14986815983E+04  0.25500000920E-02 0.  1.
       -2   -1    0    0    0  501  0.00000000000E+00  0.00000000000E+00 -0.48138724598E+03  0.48138724599E+03  0.25500000920E-02 0. -1.
    10030    2    1    2    0    0  0.00000000000E+00  0.00000000000E+00  0.10172943523E+04  0.19800688443E+04  0.16987597914E+04 0.  0.
        2    1    3    3  502    0 -0.38784344138E+02 -0.60079213277E+03  0.12070242498E+04  0.13488376298E+04  0.25500000920E-02 0.  1.
       -2    1    3    3    0  502  0.38784344138E+02  0.60079213277E+03 -0.18972989743E+03  0.63123121448E+03  0.25500000920E-02 0. -1.
</event>
<event>
 5   0  0.1285639E-04  0.1700957E+04  0.7818609E-02  0.8760819E-01
        2   -1    0    0  501    0  0.00000000000E+00  0.00000000000E+00  0.23816696835E+04  0.23816696835E+04  0.25500000920E-02 0. -1.
       -2   -1    0    0    0  501  0.00000000000E+00  0.00000000000E+00 -0.30370020817E+03  0.30370020818E+03  0.25500000920E-02 0.  1.
    10030    2    1    2    0    0  0.00000000000E+00  0.00000000000E+00  0.20779694753E+04  0.26853698916E+04  0.17009568821E+04 0.  0.
        4    1    3    3  502    0  0.90294949595E+02 -0.46246206593E+03 -0.78790032055E+02  0.47773823628E+03  0.12699999809E+01 0.  1.
       -4    1    3    3    0  502 -0.90294949595E+02  0.46246206593E+03  0.21567595073E+04  0.22076316554E+04  0.12699999809E+01 0. -1.
</event>
<event>
 5   0  0.1255362E-04  0.1703820E+04  0.7818609E-02  0.8759189E-01
        2   -1    0    0  501    0  0.00000000000E+00  0.00000000000E+00  0.61708874678E+03  0.61708874679E+03  0.25500000920E-02 0. -1.
       -2   -1    0    0    0  501  0.00000000000E+00  0.00000000000E+00 -0.11760883623E+04  0.11760883623E+04  0.25500000920E-02 0.  1.
    10030    2    1    2    0    0  0.00000000000E+00  0.00000000000E+00 -0.55899961547E+03  0.17931771090E+04  0.17038202881E+04 0.  0.
        1    1    3    3  502    0 -0.48797121307E+03  0.28311237123E+03  0.39232156315E+03  0.68715698968E+03  0.50400001928E-02 0. -1.
       -1    1    3    3    0  502  0.48797121307E+03 -0.28311237123E+03 -0.95132117862E+03  0.11060201194E+04  0.50400001928E-02 0.  1.
</event>
<event>
 5   0  0.6601906E-05  0.1699651E+04  0.7818609E-02  0.8761564E-01
       -1   -1    0    0    0  501  0.00000000000E+00  0.00000000000E+00  0.50975725919E+03  0.50975725922E+03  0.50400001928E-02 0. -1.
        1   -1    0    0  501    0  0.00000000000E+00  0.00000000000E+00 -0.14167587827E+04  0.14167587827E+04  0.50400001928E-02 0.  1.
    10030    2    1    2    0    0  0.00000000000E+00  0.00000000000E+00 -0.90700152351E+03  0.19265160419E+04  0.16996506394E+04 0.  0.
        1    1    3    3  502    0 -0.13095991779E+02 -0.54525350080E+03 -0.11922032010E+04  0.13110382747E+04  0.50400001928E-02 0.  1.
       -1    1    3    3    0  502  0.13095991779E+02  0.54525350080E+03  0.28520167748E+03  0.61547776727E+03  0.50400001928E-02 0. -1.
</event>
<event>
 5   0  0.6834837E-05  0.1700200E+04  0.7818609E-02  0.8761250E-01
       -1   -1    0    0    0  501  0.00000000000E+00  0.00000000000E+00  0.45871430867E+03  0.45871430870E+03  0.50400001928E-02 0. -1.
        1   -1    0    0  501    0  0.00000000000E+00  0.00000000000E+00 -0.15754245675E+04  0.15754245675E+04  0.50400001928E-02 0.  1.
    10030    2    1    2    0    0  0.00000000000E+00  0.00000000000E+00 -0.11167102588E+04  0.20341388762E+04  0.17001997428E+04 0.  0.
        5    1    3    3  502    0  0.76916322661E+03 -0.34222213723E+03 -0.69950961086E+03  0.10945610289E+04  0.46999998093E+01 0. -1.
       -5    1    3    3    0  502 -0.76916322661E+03  0.34222213723E+03 -0.41720064794E+03  0.93957784724E+03  0.46999998093E+01 0.  1.
</event>
<event>
 5   0  0.6539134E-05  0.1699258E+04  0.7818609E-02  0.8761788E-01
        1   -1    0    0  501    0  0.00000000000E+00  0.00000000000E+00  0.44162287640E+03  0.44162287643E+03  0.50400001928E-02 0. -1.
       -1   -1    0    0    0  501  0.00000000000E+00  0.00000000000E+00 -0.16345826524E+04  0.16345826524E+04  0.50400001928E-02 0.  1.
    10030    2    1    2    0    0  0.00000000000E+00  0.00000000000E+00 -0.11929597760E+04  0.20762055288E+04  0.16992575940E+04 0.  0.
        2    1    3    3  502    0 -0.27669769133E+03  0.45166683208E+03 -0.14081514457E+04  0.15044783261E+04  0.25500000920E-02 0.  1.
       -2    1    3    3    0  502  0.27669769133E+03 -0.45166683208E+03  0.21519166975E+03  0.57172720272E+03  0.25500000920E-02 0. -1.
</event>
<event>
 5   0  0.6834837E-05  0.1672699E+04  0.7818609E-02  0.8777090E-01
       -1   -1    0    0    0  501  0.00000000000E+00  0.00000000000E+00  0.48677785776E+03  0.48677785779E+03  0.50400001928E-02 0.  1.
        1   -1    0    0  501    0  0.00000000000E+00  0.00000000000E+00 -0.14369605693E+04  0.14369605693E+04  0.50400001928E-02 0. -1.
    10030    2    1    2    0    0  0.00000000000E+00  0.00000000000E+00 -0.95018271156E+03  0.19237384271E+04  0.16726991214E+04 0.  0.
        5    1    3    3  502    0  0.24377643707E+03  0.61202948399E+03  0.11745283979E+03  0.66919675740E+03  0.46999998093E+01 0.  1.
       -5    1    3    3    0  502 -0.24377643707E+03 -0.61202948399E+03 -0.10676355513E+04  0.12545416697E+04  0.46999998093E+01 0. -1.
</event>
<event>
 5   0  0.1255362E-04  0.1665646E+04  0.7818609E-02  0.8781204E-01
       -2   -1    0    0    0  501  0.00000000000E+00  0.00000000000E+00  0.48081446629E+03  0.48081446629E+03  0.25500000920E-02 0.  1.
        2   -1    0    0  501    0  0.00000000000E+00  0.00000000000E+00 -0.14425395520E+04  0.14425395520E+04  0.25500000920E-02 0. -1.
    10030    2    1    2    0    0  0.00000000000E+00  0.00000000000E+00 -0.96172508568E+03  0.19233540183E+04  0.16656456824E+04 0.  0.
        1    1    3    3  502    0 -0.12894866246E+03  0.67496874882E+03  0.62449146809E+02  0.69000758358E+03  0.50400001928E-02 0.  1.
       -1    1    3    3    0  502  0.12894866246E+03 -0.67496874882E+03 -0.10241742325E+04  0.12333464347E+04  0.50400001928E-02 0. -1.
</event>
<event>
 5   0  0.1285639E-04  0.1656535E+04  0.7818609E-02  0.8786550E-01
       -2   -1    0    0    0  501  0.00000000000E+00  0.00000000000E+00  0.54965513194E+03  0.54965513194E+03  0.25500000920E-02 0.  1.
        2   -1    0    0  501    0  0.00000000000E+00  0.00000000000E+00 -0.12481043605E+04  0.12481043605E+04  0.25500000920E-02 0. -1.
    10030    2    1    2    0    0  0.00000000000E+00  0.00000000000E+00 -0.69844922857E+03  0.17977594925E+04  0.16565348979E+04 0.  0.
        4    1    3    3  502    0 -0.21084770826E+03 -0.14625615959E+03 -0.12038761669E+04  0.12309212235E+04  0.12699999809E+01 0. -1.
       -4    1    3    3    0  502  0.21084770826E+03  0.14625615959E+03  0.50542693832E+03  0.56683826898E+03  0.12699999809E+01 0.  1.
</event>
<event>
 5   0  0.6564887E-05  0.1699412E+04  0.7818609E-02  0.8761700E-01
       -1   -1    0    0    0  501  0.00000000000E+00  0.00000000000E+00  0.62374071196E+03  0.62374071198E+03  0.50400001928E-02 0.  1.
        1   -1    0    0  501    0  0.00000000000E+00  0.00000000000E+00 -0.11575333733E+04  0.11575333733E+04  0.50400001928E-02 0. -1.
    10030    2    1    2    0    0  0.00000000000E+00  0.00000000000E+00 -0.53379266131E+03  0.17812740853E+04  0.16994124754E+04 0.  0.
        4    1    3    3  502    0 -0.78893873782E+03 -0.25634251138E+02  0.62765601828E+02  0.79184757405E+03  0.12699999809E+01 0.  1.
       -4    1    3    3    0  502  0.78893873782E+03  0.25634251138E+02 -0.59655826314E+03  0.98942651121E+03  0.12699999809E+01 0. -1.
</event>
<event>
 5   0  0.6539134E-05  0.1704664E+04  0.7818609E-02  0.8758709E-01
       -1   -1    0    0    0  501  0.00000000000E+00  0.00000000000E+00  0.95789249787E+03  0.95789249788E+03  0.50400001928E-02 0.  1.
        1   -1    0    0  501    0  0.00000000000E+00  0.00000000000E+00 -0.75840447995E+03  0.75840447997E+03  0.50400001928E-02 0. -1.
    10030    2    1    2    0    0  0.00000000000E+00  0.00000000000E+00  0.19948801792E+03  0.17162969779E+04  0.17046641449E+04 0.  0.
        2    1    3    3  502    0  0.18448395778E+03  0.47495231800E+02  0.93618391412E+03  0.95536927352E+03  0.25500000920E-02 0.  1.
       -2    1    3    3    0  502 -0.18448395778E+03 -0.47495231800E+02 -0.73669589621E+03  0.76092770433E+03  0.25500000920E-02 0. -1.
</event>
<event>
 5   0  0.6539134E-05  0.1700294E+04  0.7818609E-02  0.8761197E-01
       -1   -1    0    0    0  501  0.00000000000E+00  0.00000000000E+00  0.17291508254E+04  0.17291508254E+04  0.50400001928E-02 0. -1.
        1   -1    0    0  501    0  0.00000000000E+00  0.00000000000E+00 -0.41797957662E+03  0.41797957665E+03  0.50400001928E-02 0.  1.
    10030    2    1    2    0    0  0.00000000000E+00  0.00000000000E+00  0.13111712488E+04  0.21471304021E+04  0.17002937746E+04 0.  0.
        2    1    3    3  502    0  0.69742286685E+03 -0.22180181726E+03  0.12018906640E+04  0.14071730063E+04  0.25500000920E-02 0. -1.
       -2    1    3    3    0  502 -0.69742286685E+03  0.22180181726E+03  0.10928058476E+03  0.73995739577E+03  0.25500000920E-02 0.  1.
</event>
<event>
 5   0  0.1269175E-04  0.1697512E+04  0.7818609E-02  0.8762785E-01
        2   -1    0    0  501    0  0.00000000000E+00  0.00000000000E+00  0.10570521081E+04  0.10570521081E+04  0.25500000920E-02 0. -1.
       -2   -1    0    0    0  501  0.00000000000E+00  0.00000000000E+00 -0.68150546092E+03  0.68150546093E+03  0.25500000920E-02 0.  1.
    10030    2    1    2    0    0  0.00000000000E+00  0.00000000000E+00  0.37554664720E+03  0.17385575691E+04  0.16975120432E+04 0.  0.
        2    1    3    3  502    0  0.43844042217E+03  0.34856385985E+03  0.84089176808E+03  0.10103592103E+04  0.25500000920E-02 0. -1.
       -2    1    3    3    0  502 -0.43844042217E+03 -0.34856385985E+03 -0.46534512088E+03  0.72819835877E+03  0.25500000920E-02 0.  1.
</event>
<event>
 5   0  0.6601906E-05  0.1700179E+04  0.7818609E-02  0.8761262E-01
       -1   -1    0    0    0  501  0.00000000000E+00  0.00000000000E+00  0.56596385641E+03  0.56596385643E+03  0.50400001928E-02 0. -1.
        1   -1    0    0  501    0  0.00000000000E+00  0.00000000000E+00 -0.12768523304E+04  0.12768523304E+04  0.50400001928E-02 0.  1.
    10030    2    1    2    0    0  0.00000000000E+00  0.00000000000E+00 -0.71088847402E+03  0.18428161869E+04  0.17001791306E+04 0.  0.
        1    1    3    3  502    0  0.37268958077E+03 -0.48831985344E+03 -0.99236390776E+03  0.11671075050E+04  0.50400001928E-02 0.  1.
       -1    1    3    3    0  502 -0.37268958077E+03  0.48831985344E+03  0.28147543374E+03  0.67570868183E+03  0.50400001928E-02 0. -1.
</event>
<event>
 5   0  0.6564887E-05  0.1687757E+04  0.7818609E-02  0.8768378E-01
        1   -1    0    0  501    0  0.00000000000E+00  0.00000000000E+00  0.16872057317E+04  0.16872057317E+04  0.50400001928E-02 0. -1.
       -1   -1    0    0    0  501  0.00000000000E+00  0.00000000000E+00 -0.42207718630E+03  0.42207718633E+03  0.50400001928E-02 0.  1.
    10030    2    1    2    0    0  0.00000000000E+00  0.00000000000E+00  0.12651285454E+04  0.21092829181E+04  0.16877571484E+04 0.  0.
        4    1    3    3  502    0  0.18876562839E+03  0.62348152739E+03 -0.37854159021E+02  0.65253063354E+03  0.12699999809E+01 0.  1.
       -4    1    3    3    0  502 -0.18876562839E+03 -0.62348152739E+03  0.13029827045E+04  0.14567522845E+04  0.12699999809E+01 0. -1.
</event>
<event>
 5   0  0.6615842E-05  0.1700211E+04  0.7818609E-02  0.8761244E-01
       -1   -1    0    0    0  501  0.00000000000E+00  0.00000000000E+00  0.15557619888E+04  0.15557619888E+04  0.50400001928E-02 0.  1.
        1   -1    0    0  501    0  0.00000000000E+00  0.00000000000E+00 -0.46451777199E+03  0.46451777202E+03  0.50400001928E-02 0. -1.
    10030    2    1    2    0    0  0.00000000000E+00  0.00000000000E+00  0.10912442168E+04  0.20202797609E+04  0.17002106844E+04 0.  0.
        3    1    3    3  502    0 -0.84642671247E+03 -0.70463634461E+02  0.50318003968E+03  0.98721500489E+03  0.10100000352E+00 0.  1.
       -3    1    3    3    0  502  0.84642671247E+03  0.70463634461E+02  0.58806417715E+03  0.10330647560E+04  0.10100000352E+00 0. -1.
</event>
<event>
 5   0  0.6564887E-05  0.1698148E+04  0.7818609E-02  0.8762422E-01
       -1   -1    0    0    0  501  0.00000000000E+00  0.00000000000E+00  0.52518134744E+03  0.52518134746E+03  0.50400001928E-02 0.  1.
        1   -1    0    0  501    0  0.00000000000E+00  0.00000000000E+00 -0.13727186572E+04  0.13727186573E+04  0.50400001928E-02 0. -1.
    10030    2    1    2    0    0  0.00000000000E+00  0.00000000000E+00 -0.84753730980E+03  0.18979000047E+04  0.16981475014E+04 0.  0.
        4    1    3    3  502    0  0.50033192030E+03  0.32424969862E+03  0.25187033862E+03  0.64723270769E+03  0.12699999809E+01 0.  1.
       -4    1    3    3    0  502 -0.50033192030E+03 -0.32424969862E+03 -0.10994076484E+04  0.12506672970E+04  0.12699999809E+01 0. -1.
</event>
<event>
 5   0  0.1285639E-04  0.1668403E+04  0.7818609E-02  0.8779593E-01
        2   -1    0    0  501    0  0.00000000000E+00  0.00000000000E+00  0.14464356044E+04  0.14464356044E+04  0.25500000920E-02 0.  1.
       -2   -1    0    0    0  501  0.00000000000E+00  0.00000000000E+00 -0.48110815433E+03  0.48110815434E+03  0.25500000920E-02 0. -1.
    10030    2    1    2    0    0  0.00000000000E+00  0.00000000000E+00  0.96532745005E+03  0.19275437587E+04  0.16684027859E+04 0.  0.
        4    1    3    3  502    0  0.34301731685E+03  0.72630613186E+03  0.22250084935E+03  0.83348048429E+03  0.12699999809E+01 0. -1.
       -4    1    3    3    0  502 -0.34301731685E+03 -0.72630613186E+03  0.74282660070E+03  0.10940632744E+04  0.12699999809E+01 0.  1.
</event>
<event>
 5   0  0.1269175E-04  0.1700155E+04  0.7818609E-02  0.8761276E-01
       -2   -1    0    0    0  501  0.00000000000E+00  0.00000000000E+00  0.94805101004E+03  0.94805101005E+03  0.25500000920E-02 0.  1.
        2   -1    0    0  501    0  0.00000000000E+00  0.00000000000E+00 -0.76222876607E+03  0.76222876607E+03  0.25500000920E-02 0. -1.
    10030    2    1    2    0    0  0.00000000000E+00  0.00000000000E+00  0.18582224397E+03  0.17102797761E+04  0.17001549948E+04 0.  0.
        2    1    3    3  502    0 -0.76708536995E+03  0.20397488772E+03 -0.21321351447E+03  0.82187938432E+03  0.25500000920E-02 0. -1.
       -2    1    3    3    0  502  0.76708536995E+03 -0.20397488772E+03  0.39903575845E+03  0.88840039180E+03  0.25500000920E-02 0.  1.
</event>
<event>
 5   0  0.1333546E-04  0.1683597E+04  0.7818609E-02  0.8770775E-01
       -2   -1    0    0    0  501  0.00000000000E+00  0.00000000000E+00  0.75911625981E+03  0.75911625981E+03  0.25500000920E-02 0. -1.
        2   -1    0    0  501    0  0.00000000000E+00  0.00000000000E+00 -0.93348683581E+03  0.93348683582E+03  0.25500000920E-02 0.  1.
    10030    2    1    2    0    0  0.00000000000E+00  0.00000000000E+00 -0.17437057600E+03  0.16926030956E+04  0.16835973811E+04 0.  0.
        5    1    3    3  502    0  0.21001941975E+03 -0.49360925448E+03  0.56501023999E+03  0.77911290201E+03  0.46999998093E+01 0. -1.
       -5    1    3    3    0  502 -0.21001941975E+03  0.49360925448E+03 -0.73938081600E+03  0.91349019362E+03  0.46999998093E+01 0.  1.
</event>
<event>
 5   0  0.1393870E-04  0.1714374E+04  0.7818609E-02  0.8753209E-01
       -2   -1    0    0    0  501  0.00000000000E+00  0.00000000000E+00  0.77214987386E+03  0.77214987386E+03  0.25500000920E-02 0. -1.
        2   -1    0    0  501    0  0.00000000000E+00  0.00000000000E+00 -0.95158900123E+03  0.95158900124E+03  0.25500000920E-02 0.  1.
    10030    2    1    2    0    0  0.00000000000E+00  0.00000000000E+00 -0.17943912738E+03  0.17237388751E+04  0.17143737367E+04 0.  0.
        3    1    3    3  502    0  0.42500117692E+02 -0.75362008915E+03 -0.49816497717E+03  0.90438810997E+03  0.10100000352E+00 0.  1.
       -3    1    3    3    0  502 -0.42500117692E+02  0.75362008915E+03  0.31872584980E+03  0.81935076512E+03  0.10100000352E+00 0. -1.
</event>
<event>
 5   0  0.1255362E-04  0.1705022E+04  0.7818609E-02  0.8758505E-01
       -2   -1    0    0    0  501  0.00000000000E+00  0.00000000000E+00  0.32482906943E+03  0.32482906944E+03  0.25500000920E-02 0.  1.
        2   -1    0    0  501    0  0.00000000000E+00  0.00000000000E+00 -0.22374083952E+04  0.22374083952E+04  0.25500000920E-02 0. -1.
    10030    2    1    2    0    0  0.00000000000E+00  0.00000000000E+00 -0.19125793258E+04  0.25622374646E+04  0.17050223306E+04 0.  0.
        1    1    3    3  502    0 -0.66029015043E+03  0.26143275599E+03 -0.24752713994E+03  0.75206372981E+03  0.50400001928E-02 0.  1.
       -1    1    3    3    0  502  0.66029015043E+03 -0.26143275599E+03 -0.16650521858E+04  0.18101737348E+04  0.50400001928E-02 0. -1.
</event>
<event>
 5   0  0.6615842E-05  0.1698131E+04  0.7818609E-02  0.8762431E-01
        1   -1    0    0  501    0  0.00000000000E+00  0.00000000000E+00  0.10732236975E+04  0.10732236975E+04  0.50400001928E-02 0.  1.
       -1   -1    0    0    0  501  0.00000000000E+00  0.00000000000E+00 -0.67172590482E+03  0.67172590483E+03  0.50400001928E-02 0. -1.
    10030    2    1    2    0    0  0.00000000000E+00  0.00000000000E+00  0.40149779271E+03  0.17449496024E+04  0.16981309247E+04 0.  0.
        3    1    3    3  502    0  0.46265430908E+03  0.63037346142E+03  0.54076836262E+03  0.95071033590E+03  0.10100000352E+00 0.  1.
       -3    1    3    3    0  502 -0.46265430908E+03 -0.63037346142E+03 -0.13927056990E+03  0.79423926648E+03  0.10100000352E+00 0. -1.
</event>
<event>
 5   0  0.6615842E-05  0.1712981E+04  0.7818609E-02  0.8753995E-01
       -1   -1    0    0    0  501  0.00000000000E+00  0.00000000000E+00  0.31638204627E+04  0.31638204627E+04  0.50400001928E-02 0.  1.
        1   -1    0    0  501    0  0.00000000000E+00  0.00000000000E+00 -0.23186407029E+03  0.23186407034E+03  0.50400001928E-02 0. -1.
    10030    2    1    2    0    0  0.00000000000E+00  0.00000000000E+00  0.29319563924E+04  0.33956845331E+04  0.17129813662E+04 0.  0.
        3    1    3    3  502    0 -0.56857551993E+03  0.38207663729E+03  0.24851234751E+04  0.25778090261E+04  0.10100000352E+00 0.  1.
       -3    1    3    3    0  502  0.56857551993E+03 -0.38207663729E+03  0.44683291737E+03  0.81787550695E+03  0.10100000352E+00 0. -1.
</event>
<event>
 5   0  0.1333546E-04  0.1701503E+04  0.7818609E-02  0.8760507E-01
       -2   -1    0    0    0  501  0.00000000000E+00  0.00000000000E+00  0.82302833727E+03  0.82302833727E+03  0.25500000920E-02 0. -1.
        2   -1    0    0  501    0  0.00000000000E+00  0.00000000000E+00 -0.87940887935E+03  0.87940887935E+03  0.25500000920E-02 0.  1.
    10030    2    1    2    0    0  0.00000000000E+00  0.00000000000E+00 -0.56380542081E+02  0.17024372166E+04  0.17015033679E+04 0.  0.
        5    1    3    3  502    0 -0.53475122058E+03 -0.78449313907E+02 -0.68554642174E+03  0.87298863058E+03  0.46999998093E+01 0.  1.
       -5    1    3    3    0  502  0.53475122058E+03  0.78449313907E+02  0.62916587966E+03  0.82944858604E+03  0.46999998093E+01 0. -1.
</event>
<event>
 5   0  0.6564887E-05  0.1701690E+04  0.7818609E-02  0.8760401E-01
       -1   -1    0    0    0  501  0.00000000000E+00  0.00000000000E+00  0.86099230637E+03  0.86099230638E+03  0.50400001928E-02 0. -1.
        1   -1    0    0  501    0  0.00000000000E+00  0.00000000000E+00 -0.84081722191E+03  0.84081722192E+03  0.50400001928E-02 0.  1.
    10030    2    1    2    0    0  0.00000000000E+00  0.00000000000E+00  0.20175084460E+02  0.17018095283E+04  0.17016899355E+04 0.  0.
        4    1    3    3  502    0  0.56862612542E+03 -0.37020241857E+03 -0.50331979148E+03  0.84481828024E+03  0.12699999809E+01 0.  1.
       -4    1    3    3    0  502 -0.56862612542E+03  0.37020241857E+03  0.52349487594E+03  0.85699124807E+03  0.12699999809E+01 0. -1.
</event>
<event>
 5   0  0.1255362E-04  0.1706376E+04  0.7818609E-02  0.8757736E-01
       -2   -1    0    0    0  501  0.00000000000E+00  0.00000000000E+00  0.39687651870E+03  0.39687651871E+03  0.25500000920E-02 0.  1.
        2   -1    0    0  501    0  0.00000000000E+00  0.00000000000E+00 -0.18341469423E+04  0.18341469423E+04  0.25500000920E-02 0. -1.
    10030    2    1    2    0    0  0.00000000000E+00  0.00000000000E+00 -0.14372704236E+04  0.22310234610E+04  0.17063761054E+04 0.  0.
        1    1    3    3  502    0  0.74010545305E+03 -0.36464976195E+03 -0.43456855399E+03  0.93251024587E+03  0.50400001928E-02 0.  1.
       -1    1    3    3    0  502 -0.74010545305E+03  0.36464976195E+03 -0.10027018696E+04  0.12985132151E+04  0.50400001928E-02 0. -1.
</event>
<event>
 5   0  0.1393870E-04  0.1698296E+04  0.7818609E-02  0.8762337E-01
        2   -1    0    0  501    0  0.00000000000E+00  0.00000000000E+00  0.17593581911E+04  0.17593581911E+04  0.25500000920E-02 0. -1.
       -2   -1    0    0    0  501  0.00000000000E+00  0.00000000000E+00 -0.40983851149E+03  0.40983851150E+03  0.25500000920E-02 0.  1.
    10030    2    1    2    0    0  0.00000000000E+00  0.00000000000E+00  0.13495196796E+04  0.21691967026E+04  0.16982964903E+04 0.  0.
        3    1    3    3  502    0 -0.28611239589E+03  0.51507538828E+03  0.14557709586E+04  0.15704878391E+04  0.10100000352E+00 0. -1.
       -3    1    3    3    0  502  0.28611239589E+03 -0.51507538828E+03 -0.10625127902E+03  0.59870886346E+03  0.10100000352E+00 0.  1.
</event>
<event>
 5   0  0.6615842E-05  0.1701371E+04  0.7818609E-02  0.8760583E-01
        1   -1    0    0  501    0  0.00000000000E+00  0.00000000000E+00  0.98176333060E+03  0.98176333061E+03  0.50400001928E-02 0.  1.
       -1   -1    0    0    0  501  0.00000000000E+00  0.00000000000E+00 -0.73710850658E+03  0.73710850660E+03  0.50400001928E-02 0. -1.
    10030    2    1    2    0    0  0.00000000000E+00  0.00000000000E+00  0.24465482401E+03  0.17188718372E+04  0.17013713321E+04 0.  0.
        3    1    3    3  502    0  0.27185240045E+03 -0.46347176048E+03  0.78862339348E+03  0.95427284743E+03  0.10100000352E+00 0.  1.
       -3    1    3    3    0  502 -0.27185240045E+03  0.46347176048E+03 -0.54396856947E+03  0.76459898978E+03  0.10100000352E+00 0. -1.
</event>
<event>
 5   0  0.1393870E-04  0.1700048E+04  0.7818609E-02  0.8761337E-01
       -2   -1    0    0    0  501  0.00000000000E+00  0.00000000000E+00  0.89157987667E+03  0.89157987667E+03  0.25500000920E-02 0.  1.
        2   -1    0    0  501    0  0.00000000000E+00  0.00000000000E+00 -0.81040466242E+03  0.81040466243E+03  0.25500000920E-02 0. -1.
    10030    2    1    2    0    0  0.00000000000E+00  0.00000000000E+00  0.81175214248E+02  0.17019845391E+04  0.17000476334E+04 0.  0.
        3    1    3    3  502    0 -0.74436173671E+03  0.49602188115E+02 -0.36731457577E+03  0.83153759982E+03  0.10100000352E+00 0. -1.
       -3    1    3    3    0  502  0.74436173671E+03 -0.49602188115E+02  0.44848979001E+03  0.87044693928E+03  0.10100000352E+00 0.  1.
</event>
<event>
 5   0  0.1255362E-04  0.1696724E+04  0.7818609E-02  0.8763235E-01
        2   -1    0    0  501    0  0.00000000000E+00  0.00000000000E+00  0.89088533641E+03  0.89088533642E+03  0.25500000920E-02 0.  1.
       -2   -1    0    0    0  501  0.00000000000E+00  0.00000000000E+00 -0.80786818247E+03  0.80786818248E+03  0.25500000920E-02 0. -1.
    10030    2    1    2    0    0  0.00000000000E+00  0.00000000000E+00  0.83017153940E+02  0.16987535189E+04  0.16967238049E+04 0.  0.
        1    1    3    3  502    0  0.26912284659E+02  0.42384382035E+03 -0.69377452117E+03  0.81344387721E+03  0.50400001928E-02 0. -1.
       -1    1    3    3    0  502 -0.26912284659E+02 -0.42384382035E+03  0.77679167511E+03  0.88530964169E+03  0.50400001928E-02 0.  1.
</event>
<event>
 5   0  0.6539134E-05  0.1712076E+04  0.7818609E-02  0.8754507E-01
        1   -1    0    0  501    0  0.00000000000E+00  0.00000000000E+00  0.10598712923E+04  0.10598712923E+04  0.50400001928E-02 0. -1.
       -1   -1    0    0    0  501  0.00000000000E+00  0.00000000000E+00 -0.69140588425E+03  0.69140588426E+03  0.50400001928E-02 0.  1.
    10030    2    1    2    0    0  0.00000000000E+00  0.00000000000E+00  0.36846540809E+03  0.17512771766E+04  0.17120762227E+04 0.  0.
        2    1    3    3  502    0 -0.54490308178E+03 -0.58305965646E+03  0.50103905923E+03  0.94229404668E+03  0.25500000920E-02 0. -1.
       -2    1    3    3    0  502  0.54490308178E+03  0.58305965646E+03 -0.13257365114E+03  0.80898312993E+03  0.25500000920E-02 0.  1.
</event>
<event>
 5   0  0.1285639E-04  0.1707216E+04  0.7818609E-02  0.8757260E-01
        2   -1    0    0  501    0  0.00000000000E+00  0.00000000000E+00  0.99169500671E+03  0.99169500672E+03  0.25500000920E-02 0. -1.
       -2   -1    0    0    0  501  0.00000000000E+00  0.00000000000E+00 -0.73474837346E+03  0.73474837346E+03  0.25500000920E-02 0.  1.
    10030    2    1    2    0    0  0.00000000000E+00  0.00000000000E+00  0.25694663326E+03  0.17264433802E+04  0.17072156198E+04 0.  0.
        4    1    3    3  502    0  0.23557816989E+03 -0.26096824839E+03 -0.65813249209E+03  0.74615111797E+03  0.12699999809E+01 0.  1.
       -4    1    3    3    0  502 -0.23557816989E+03  0.26096824839E+03  0.91507912535E+03  0.98029226221E+03  0.12699999809E+01 0. -1.
</event>
<event>
 5   0  0.1269175E-04  0.1595181E+04  0.7818609E-02  0.8823514E-01
       -2   -1    0    0    0  501  0.00000000000E+00  0.00000000000E+00  0.91521690491E+03  0.91521690491E+03  0.25500000920E-02 0.  1.
        2   -1    0    0  501    0  0.00000000000E+00  0.00000000000E+00 -0.69508160016E+03  0.69508160016E+03  0.25500000920E-02 0. -1.
    10030    2    1    2    0    0  0.00000000000E+00  0.00000000000E+00  0.22013530475E+03  0.16102985051E+04  0.15951807807E+04 0.  0.
        2    1    3    3  502    0  0.74826101721E+03 -0.17117279697E+03 -0.10867873671E+03  0.77524560245E+03  0.25500000920E-02 0. -1.
       -2    1    3    3    0  502 -0.74826101721E+03  0.17117279697E+03  0.32881404146E+03  0.83505290262E+03  0.25500000920E-02 0.  1.
</event>
<event>
 5   0  0.6615842E-05  0.1703864E+04  0.7818609E-02  0.8759164E-01
        1   -1    0    0  501    0  0.00000000000E+00  0.00000000000E+00  0.76225158178E+03  0.76225158180E+03  0.50400001928E-02 0.  1.
       -1   -1    0    0    0  501  0.00000000000E+00  0.00000000000E+00 -0.95216295233E+03  0.95216295234E+03  0.50400001928E-02 0. -1.
    10030    2    1    2    0    0  0.00000000000E+00  0.00000000000E+00 -0.18991137054E+03  0.17144145341E+04  0.17038635116E+04 0.  0.
        3    1    3    3  502    0  0.18193560632E+03 -0.15587214157E+03 -0.91757014561E+03  0.94833099268E+03  0.10100000352E+00 0. -1.
       -3    1    3    3    0  502 -0.18193560632E+03  0.15587214157E+03  0.72765877507E+03  0.76608354146E+03  0.10100000352E+00 0.  1.
</event>
<event>
 5   0  0.6564887E-05  0.1701074E+04  0.7818609E-02  0.8760752E-01
        1   -1    0    0  501    0  0.00000000000E+00  0.00000000000E+00  0.11352391861E+04  0.11352391861E+04  0.50400001928E-02 0. -1.
       -1   -1    0    0    0  501  0.00000000000E+00  0.00000000000E+00 -0.63723396941E+03  0.63723396943E+03  0.50400001928E-02 0.  1.
    10030    2    1    2    0    0  0.00000000000E+00  0.00000000000E+00  0.49800521667E+03  0.17724731555E+04  0.17010737466E+04 0.  0.
        4    1    3    3  502    0 -0.56646956834E+03 -0.59642781576E+03  0.23595497423E+02  0.82290477679E+03  0.12699999809E+01 0. -1.
       -4    1    3    3    0  502  0.56646956834E+03  0.59642781576E+03  0.47440971924E+03  0.94956837873E+03  0.12699999809E+01 0.  1.
</event>
<event>
 5   0  0.6834837E-05  0.1698152E+04  0.7818609E-02  0.8762419E-01
       -1   -1    0    0    0  501  0.00000000000E+00  0.00000000000E+00  0.60062622959E+03  0.60062622961E+03  0.50400001928E-02 0.  1.
        1   -1    0    0  501    0  0.00000000000E+00  0.00000000000E+00 -0.12002979729E+04  0.12002979729E+04  0.50400001928E-02 0. -1.
    10030    2    1    2    0    0  0.00000000000E+00  0.00000000000E+00 -0.59967174334E+03  0.18009242026E+04  0.16981524618E+04 0.  0.
        5    1    3    3  502    0 -0.61194257798E+03  0.22925398089E+03 -0.87474835490E+03  0.10918964607E+04  0.46999998093E+01 0. -1.
       -5    1    3    3    0  502  0.61194257798E+03 -0.22925398089E+03  0.27507661156E+03  0.70902774186E+03  0.46999998093E+01 0.  1.
</event>
<event>
 5   0  0.6564887E-05  0.1698474E+04  0.7818609E-02  0.8762235E-01
        1   -1    0    0  501    0  0.00000000000E+00  0.00000000000E+00  0.85004596150E+03  0.85004596152E+03  0.50400001928E-02 0.  1.
       -1   -1    0    0    0  501  0.00000000000E+00  0.00000000000E+00 -0.84842908334E+03  0.84842908335E+03  0.50400001928E-02 0. -1.
    10030    2    1    2    0    0  0.00000000000E+00  0.00000000000E+00  0.16168781682E+01  0.16984750449E+04  0.16984742753E+04 0.  0.
        4    1    3    3  502    0 -0.72675354926E+03 -0.36941719436E+03 -0.23702000633E+03  0.84901111957E+03  0.12699999809E+01 0. -1.
       -4    1    3    3    0  502  0.72675354926E+03  0.36941719436E+03  0.23863688450E+03  0.84946392530E+03  0.12699999809E+01 0.  1.
</event>
<event>
 5   0  0.6601906E-05  0.1697545E+04  0.7818609E-02  0.8762766E-01
       -1   -1    0    0    0  501  0.00000000000E+00  0.00000000000E+00  0.10945392464E+04  0.10945392464E+04  0.50400001928E-02 0. -1.
        1   -1    0    0  501    0  0.00000000000E+00  0.00000000000E+00 -0.65819012080E+03  0.65819012082E+03  0.50400001928E-02 0.  1.
    10030    2    1    2    0    0  0.00000000000E+00  0.00000000000E+00  0.43634912559E+03  0.17527293672E+04  0.16975451909E+04 0.  0.
        1    1    3    3  502    0 -0.78673903754E+03 -0.53462969565E+02 -0.10603682755E+03  0.79565093548E+03  0.50400001928E-02 0. -1.
       -1    1    3    3    0  502  0.78673903754E+03  0.53462969565E+02  0.54238595313E+03  0.95707843173E+03  0.50400001928E-02 0.  1.
</event>
<event>
 5   0  0.1333546E-04  0.1696872E+04  0.7818609E-02  0.8763150E-01
        2   -1    0    0  501    0  0.00000000000E+00  0.00000000000E+00  0.20123644237E+04  0.20123644237E+04  0.25500000920E-02 0.  1.
       -2   -1    0    0    0  501  0.00000000000E+00  0.00000000000E+00 -0.35771043771E+03  0.35771043772E+03  0.25500000920E-02 0. -1.
    10030    2    1    2    0    0  0.00000000000E+00  0.00000000000E+00  0.16546539860E+04  0.23700748614E+04  0.16968721329E+04 0.  0.
        5    1    3    3  502    0 -0.74142609797E+02 -0.64430981437E+03  0.63339846896E+02  0.65166424613E+03  0.46999998093E+01 0. -1.
       -5    1    3    3    0  502  0.74142609797E+02  0.64430981437E+03  0.15913141391E+04  0.17184106153E+04  0.46999998093E+01 0.  1.
</event>
<event>
 5   0  0.6564887E-05  0.1659630E+04  0.7818609E-02  0.8784730E-01
       -1   -1    0    0    0  501  0.00000000000E+00  0.00000000000E+00  0.31302513209E+03  0.31302513213E+03  0.50400001928E-02 0.  1.
        1   -1    0    0  501    0  0.00000000000E+00  0.00000000000E+00 -0.21998014638E+04  0.21998014638E+04  0.50400001928E-02 0. -1.
    10030    2    1    2    0    0  0.00000000000E+00  0.00000000000E+00 -0.18867763317E+04  0.25128265960E+04  0.16596302526E+04 0.  0.
        4    1    3    3  502    0 -0.78932194215E+03 -0.49934766699E+01 -0.13309990878E+04  0.15474541181E+04  0.12699999809E+01 0. -1.
       -4    1    3    3    0  502  0.78932194215E+03  0.49934766699E+01 -0.55577724396E+03  0.96537247784E+03  0.12699999809E+01 0.  1.
</event>
<event>
 5   0  0.4720875E-05  0.1698637E+04  0.7818609E-02  0.8762142E-01
       -4   -1    0    0    0  501  0.00000000000E+00  0.00000000000E+00  0.10512782804E+04  0.10512790475E+04  0.12699999809E+01 0.  1.
        4   -1    0    0  501    0  0.00000000000E+00  0.00000000000E+00 -0.68615563650E+03  0.68615681182E+03  0.12699999809E+01 0. -1.
    10030    2    1    2    0    0  0.00000000000E+00  0.00000000000E+00  0.36512264390E+03  0.17374358593E+04  0.16986373422E+04 0.  0.
        3    1    3    3  502    0  0.83935733426E+03  0.19394618945E+02  0.51392948521E+02  0.84115285839E+03  0.10100000352E+00 0. -1.
       -3    1    3    3    0  502 -0.83935733426E+03 -0.19394618945E+02  0.31372969538E+03  0.89628300094E+03  0.10100000352E+00 0.  1.
</event>
<event>
 5   0  0.1393870E-04  0.1706769E+04  0.7818609E-02  0.8757513E-01
        2   -1    0    0  501    0  0.00000000000E+00  0.00000000000E+00  0.24240127051E+03  0.24240127052E+03  0.25500000920E-02 0.  1.
       -2   -1    0    0    0  501  0.00000000000E+00  0.00000000000E+00 -0.30043799858E+04  0.30043799858E+04  0.25500000920E-02 0. -1.
    10030    2    1    2    0    0  0.00000000000E+00  0.00000000000E+00 -0.27619787153E+04  0.32467812563E+04  0.17067694931E+04 0.  0.
        3    1    3    3  502    0 -0.32680621994E+03 -0.55009403564E+03 -0.30680699497E+03  0.70960291417E+03  0.10100000352E+00 0.  1.
       -3    1    3    3    0  502  0.32680621994E+03  0.55009403564E+03 -0.24551717203E+04  0.25371783421E+04  0.10100000352E+00 0. -1.
</event>
<event>
 5   0  0.1393870E-04  0.1697377E+04  0.7818609E-02  0.8762862E-01
       -2   -1    0    0    0  501  0.00000000000E+00  0.00000000000E+00  0.35185094268E+03  0.35185094269E+03  0.25500000920E-02 0.  1.
        2   -1    0    0  501    0  0.00000000000E+00  0.00000000000E+00 -0.20470955477E+04  0.20470955477E+04  0.25500000920E-02 0. -1.
    10030    2    1    2    0    0  0.00000000000E+00  0.00000000000E+00 -0.16952446050E+04  0.23989464904E+04  0.16973773867E+04 0.  0.
        3    1    3    3  502    0 -0.22068078640E+03 -0.67964337123E+03 -0.14947607640E+04  0.16567814802E+04  0.10100000352E+00 0. -1.
       -3    1    3    3    0  502  0.22068078640E+03  0.67964337123E+03 -0.20048384102E+03  0.74216501012E+03  0.10100000352E+00 0.  1.
</event>
<event>
 5   0  0.6834837E-05  0.1689612E+04  0.7818609E-02  0.8767311E-01
        1   -1    0    0  501    0  0.00000000000E+00  0.00000000000E+00  0.16256493042E+04  0.16256493042E+04  0.50400001928E-02 0. -1.
       -1   -1    0    0    0  501  0.00000000000E+00  0.00000000000E+00 -0.43902291007E+03  0.43902291010E+03  0.50400001928E-02 0.  1.
    10030    2    1    2    0    0  0.00000000000E+00  0.00000000000E+00  0.11866263941E+04  0.20646722143E+04  0.16896121310E+04 0.  0.
        5    1    3    3  502    0 -0.83456612131E+02 -0.60275791909E+03  0.13093904298E+04  0.14438862499E+04  0.46999998093E+01 0. -1.
       -5    1    3    3    0  502  0.83456612131E+02  0.60275791909E+03 -0.12276403564E+03  0.62078596439E+03  0.46999998093E+01 0.  1.
</event>
<event>
 5   0  0.1333546E-04  0.1734192E+04  0.7818609E-02  0.8742100E-01
       -2   -1    0    0    0  501  0.00000000000E+00  0.00000000000E+00  0.66141044757E+03  0.66141044757E+03  0.25500000920E-02 0. -1.
        2   -1    0    0  501    0  0.00000000000E+00  0.00000000000E+00 -0.11367456571E+04  0.11367456572E+04  0.25500000920E-02 0.  1.
    10030    2    1    2    0    0  0.00000000000E+00  0.00000000000E+00 -0.47533520958E+03  0.17981561047E+04  0.17341919777E+04 0.  0.
        5    1    3    3  502    0  0.38335777871E+03  0.19641271799E+03 -0.10179476799E+04  0.11053418979E+04  0.46999998093E+01 0.  1.
       -5    1    3    3    0  502 -0.38335777871E+03 -0.19641271799E+03  0.54261247029E+03  0.69281420684E+03  0.46999998093E+01 0. -1.
</event>
<event>
 5   0  0.1393870E-04  0.1690893E+04  0.7818609E-02  0.8766575E-01
       -2   -1    0    0    0  501  0.00000000000E+00  0.00000000000E+00  0.50902739125E+03  0.50902739126E+03  0.25500000920E-02 0.  1.
        2   -1    0    0  501    0  0.00000000000E+00  0.00000000000E+00 -0.14042075878E+04  0.14042075878E+04  0.25500000920E-02 0. -1.
    10030    2    1    2    0    0  0.00000000000E+00  0.00000000000E+00 -0.89518019651E+03  0.19132349790E+04  0.16908934031E+04 0.  0.
        3    1    3    3  502    0  0.45986011734E+03 -0.91055812737E+02  0.34850035205E+03  0.58413610925E+03  0.10100000352E+00 0.  1.
       -3    1    3    3    0  502 -0.45986011734E+03  0.91055812737E+02 -0.12436805486E+04  0.13290988698E+04  0.10100000352E+00 0. -1.
</event>
<event>
 5   0  0.6615842E-05  0.1705493E+04  0.7818609E-02  0.8758238E-01
        1   -1    0    0  501    0  0.00000000000E+00  0.00000000000E+00  0.79695968759E+03  0.79695968761E+03  0.50400001928E-02 0.  1.
       -1   -1    0    0    0  501  0.00000000000E+00  0.00000000000E+00 -0.91243811974E+03  0.91243811976E+03  0.50400001928E-02 0. -1.
    10030    2    1    2    0    0  0.00000000000E+00  0.00000000000E+00 -0.11547843215E+03  0.17093978074E+04  0.17054927721E+04 0.  0.
        3    1    3    3  502    0 -0.20667796335E+03 -0.48545927783E+03 -0.72919094364E+03  0.90005884999E+03  0.10100000352E+00 0. -1.
       -3    1    3    3    0  502  0.20667796335E+03  0.48545927783E+03  0.61371251149E+03  0.80933895738E+03  0.10100000352E+00 0.  1.
</event>
<event>
 5   0  0.6615842E-05  0.1703560E+04  0.7818609E-02  0.8759337E-01
       -1   -1    0    0    0  501  0.00000000000E+00  0.00000000000E+00  0.67264710967E+03  0.67264710969E+03  0.50400001928E-02 0. -1.
        1   -1    0    0  501    0  0.00000000000E+00  0.00000000000E+00 -0.10786172680E+04  0.10786172680E+04  0.50400001928E-02 0.  1.
    10030    2    1    2    0    0  0.00000000000E+00  0.00000000000E+00 -0.40597015833E+03  0.17512643777E+04  0.17035595532E+04 0.  0.
        3    1    3    3  502    0  0.82864441895E+03  0.16991705032E+03 -0.30581313701E+03  0.89946932244E+03  0.10100000352E+00 0.  1.
       -3    1    3    3    0  502 -0.82864441895E+03 -0.16991705032E+03 -0.10015702132E+03  0.85179505526E+03  0.10100000352E+00 0. -1.
</event>
<event>
 5   0  0.6564887E-05  0.1703936E+04  0.7818609E-02  0.8759123E-01
       -1   -1    0    0    0  501  0.00000000000E+00  0.00000000000E+00  0.39717822721E+03  0.39717822725E+03  0.50400001928E-02 0.  1.
        1   -1    0    0  501    0  0.00000000000E+00  0.00000000000E+00 -0.18275147516E+04  0.18275147516E+04  0.50400001928E-02 0. -1.
    10030    2    1    2    0    0  0.00000000000E+00  0.00000000000E+00 -0.14303365244E+04  0.22246929788E+04  0.17039355261E+04 0.  0.
        4    1    3    3  502    0  0.45303542925E+03 -0.71552506409E+03 -0.59387732966E+03  0.10343641105E+04  0.12699999809E+01 0.  1.
       -4    1    3    3    0  502 -0.45303542925E+03  0.71552506409E+03 -0.83645919470E+03  0.11903288683E+04  0.12699999809E+01 0. -1.
</event>
<event>
 5   0  0.1255362E-04  0.1698414E+04  0.7818609E-02  0.8762269E-01
        2   -1    0    0  501    0  0.00000000000E+00  0.00000000000E+00  0.29260130654E+04  0.29260130654E+04  0.25500000920E-02 0.  1.
       -2   -1    0    0    0  501  0.00000000000E+00  0.00000000000E+00 -0.24646255457E+03  0.24646255458E+03  0.25500000920E-02 0. -1.
    10030    2    1    2    0    0  0.00000000000E+00  0.00000000000E+00  0.26795505109E+04  0.31724756200E+04  0.16984141483E+04 0.  0.
        1    1    3    3  502    0  0.35824818354E+03 -0.68864587817E+03  0.19829904481E+04  0.21295130954E+04  0.50400001928E-02 0.  1.
       -1    1    3    3    0  502 -0.35824818354E+03  0.68864587817E+03  0.69656006279E+03  0.10429625246E+04  0.50400001928E-02 0. -1.
</event>
<event>
 5   0  0.4720875E-05  0.1708094E+04  0.7818609E-02  0.8756761E-01
       -4   -1    0    0    0  501  0.00000000000E+00  0.00000000000E+00  0.93630386536E+03  0.93630472667E+03  0.12699999809E+01 0.  1.
        4   -1    0    0  501    0  0.00000000000E+00  0.00000000000E+00 -0.77901527831E+03  0.77901631353E+03  0.12699999809E+01 0. -1.
    10030    2    1    2    0    0  0.00000000000E+00  0.00000000000E+00  0.15728858704E+03  0.17153210402E+04  0.17080944269E+04 0.  0.
        1    1    3    3  502    0 -0.72604695679E+03  0.21674463634E+03  0.47435993767E+03  0.89394617922E+03  0.50400001928E-02 0.  1.
       -1    1    3    3    0  502  0.72604695679E+03 -0.21674463634E+03 -0.31707135062E+03  0.82137486099E+03  0.50400001928E-02 0. -1.
</event>
<event>
 5   0  0.1269175E-04  0.1707683E+04  0.7818609E-02  0.8756994E-01
       -2   -1    0    0    0  501  0.00000000000E+00  0.00000000000E+00  0.34573649179E+03  0.34573649179E+03  0.25500000920E-02 0.  1.
        2   -1    0    0  501    0  0.00000000000E+00  0.00000000000E+00 -0.21086741395E+04  0.21086741395E+04  0.25500000920E-02 0. -1.
    10030    2    1    2    0    0  0.00000000000E+00  0.00000000000E+00 -0.17629376477E+04  0.24544106313E+04  0.17076833422E+04 0.  0.
        2    1    3    3  502    0 -0.20233284433E+03 -0.51300568231E+03  0.55445107704E+02  0.55424504504E+03  0.25500000920E-02 0.  1.
       -2    1    3    3    0  502  0.20233284433E+03  0.51300568231E+03 -0.18183827554E+04  0.19001655863E+04  0.25500000920E-02 0. -1.
</event>
<event>
 5   0  0.1393870E-04  0.1692501E+04  0.7818609E-02  0.8765653E-01
       -2   -1    0    0    0  501  0.00000000000E+00  0.00000000000E+00  0.13914429731E+04  0.13914429731E+04  0.25500000920E-02 0. -1.
        2   -1    0    0  501    0  0.00000000000E+00  0.00000000000E+00 -0.51467433611E+03  0.51467433611E+03  0.25500000920E-02 0.  1.
    10030    2    1    2    0    0  0.00000000000E+00  0.00000000000E+00  0.87676863703E+03  0.19061173093E+04  0.16925010942E+04 0.  0.
        3    1    3    3  502    0  0.51003143648E+03 -0.54335162995E+01  0.11988730739E+04  0.13028653986E+04  0.10100000352E+00 0. -1.
       -3    1    3    3    0  502 -0.51003143648E+03  0.54335162995E+01 -0.32210443686E+03  0.60325191068E+03  0.10100000352E+00 0.  1.
</event>
<event>
 5   0  0.6539134E-05  0.1700139E+04  0.7818609E-02  0.8761285E-01
        1   -1    0    0  501    0  0.00000000000E+00  0.00000000000E+00  0.96255596430E+03  0.96255596431E+03  0.50400001928E-02 0.  1.
       -1   -1    0    0    0  501  0.00000000000E+00  0.00000000000E+00 -0.75072832623E+03  0.75072832624E+03  0.50400001928E-02 0. -1.
    10030    2    1    2    0    0  0.00000000000E+00  0.00000000000E+00  0.21182763807E+03  0.17132842906E+04  0.17001388508E+04 0.  0.
        2    1    3    3  502    0 -0.51482852917E+03  0.31365657936E+03 -0.49804406385E+03  0.78196979082E+03  0.25500000920E-02 0. -1.
       -2    1    3    3    0  502  0.51482852917E+03 -0.31365657936E+03  0.70987170192E+03  0.93131449973E+03  0.25500000920E-02 0.  1.
</event>
<event>
 5   0  0.6601906E-05  0.1696339E+04  0.7818609E-02  0.8763455E-01
        1   -1    0    0  501    0  0.00000000000E+00  0.00000000000E+00  0.97607071248E+03  0.97607071249E+03  0.50400001928E-02 0. -1.
       -1   -1    0    0    0  501  0.00000000000E+00  0.00000000000E+00 -0.73702832953E+03  0.73702832954E+03  0.50400001928E-02 0.  1.
    10030    2    1    2    0    0  0.00000000000E+00  0.00000000000E+00  0.23904238295E+03  0.17130990420E+04  0.16963393136E+04 0.  0.
        1    1    3    3  502    0 -0.14182966820E+03 -0.80041300629E+03 -0.12497641731E+03  0.82243281813E+03  0.50400001928E-02 0. -1.
       -1    1    3    3    0  502  0.14182966820E+03  0.80041300629E+03  0.36401880026E+03  0.89066622390E+03  0.50400001928E-02 0.  1.
</event>
<event>
 5   0  0.1393870E-04  0.1708958E+04  0.7818609E-02  0.8756272E-01
       -2   -1    0    0    0  501  0.00000000000E+00  0.00000000000E+00  0.30045872442E+03  0.30045872444E+03  0.25500000920E-02 0.  1.
        2   -1    0    0  501    0  0.00000000000E+00  0.00000000000E+00 -0.24300659234E+04  0.24300659234E+04  0.25500000920E-02 0. -1.
    10030    2    1    2    0    0  0.00000000000E+00  0.00000000000E+00 -0.21296071990E+04  0.27305246479E+04  0.17089581711E+04 0.  0.
        3    1    3    3  502    0 -0.47265452375E+03  0.66099587252E+03 -0.64262697098E+03  0.10359957897E+04  0.10100000352E+00 0.  1.
       -3    1    3    3    0  502  0.47265452375E+03 -0.66099587252E+03 -0.14869802280E+04  0.16945288581E+04  0.10100000352E+00 0. -1.
</event>
<event>
 5   0  0.1333546E-04  0.1723247E+04  0.7818609E-02  0.8748216E-01
        2   -1    0    0  501    0  0.00000000000E+00  0.00000000000E+00  0.12130709501E+04  0.12130709501E+04  0.25500000920E-02 0. -1.
       -2   -1    0    0    0  501  0.00000000000E+00  0.00000000000E+00 -0.61199658144E+03  0.61199658144E+03  0.25500000920E-02 0.  1.
    10030    2    1    2    0    0  0.00000000000E+00  0.00000000000E+00  0.60107436863E+03  0.18250675315E+04  0.17232472539E+04 0.  0.
        5    1    3    3  502    0  0.77075432538E+03  0.14070361724E+03  0.68020661337E+03  0.10375754743E+04  0.46999998093E+01 0. -1.
       -5    1    3    3    0  502 -0.77075432538E+03 -0.14070361724E+03 -0.79132244748E+02  0.78749205720E+03  0.46999998093E+01 0.  1.
</event>
<event>
 5   0  0.6615842E-05  0.1713657E+04  0.7818609E-02  0.8753613E-01
       -1   -1    0    0    0  501  0.00000000000E+00  0.00000000000E+00  0.42966120921E+03  0.42966120924E+03  0.50400001928E-02 0. -1.
        1   -1    0    0  501    0  0.00000000000E+00  0.00000000000E+00 -0.17086843737E+04  0.17086843737E+04  0.50400001928E-02 0.  1.
    10030    2    1    2    0    0  0.00000000000E+00  0.00000000000E+00 -0.12790231645E+04  0.21383455829E+04  0.17136573686E+04 0.  0.
        3    1    3    3  502    0  0.11773310849E+03 -0.14585449586E+03  0.40376375220E+03  0.44515143107E+03  0.10100000352E+00 0. -1.
       -3    1    3    3    0  502 -0.11773310849E+03  0.14585449586E+03 -0.16827869167E+04  0.16931941519E+04  0.10100000352E+00 0.  1.
</event>
<event>
 5   0  0.6564887E-05  0.1700729E+04  0.7818609E-02  0.8760949E-01
        1   -1    0    0  501    0  0.00000000000E+00  0.00000000000E+00  0.11224497102E+04  0.11224497102E+04  0.50400001928E-02 0. -1.
       -1   -1    0    0    0  501  0.00000000000E+00  0.00000000000E+00 -0.64423363717E+03  0.64423363719E+03  0.50400001928E-02 0.  1.
    10030    2    1    2    0    0  0.00000000000E+00  0.00000000000E+00  0.47821607303E+03  0.17666833474E+04  0.17007290900E+04 0.  0.
        4    1    3    3  502    0  0.18460313246E+03 -0.24863063337E+03  0.10617947289E+04  0.11060312689E+04  0.12699999809E+01 0. -1.
       -4    1    3    3    0  502 -0.18460313246E+03  0.24863063337E+03 -0.58357865591E+03  0.66065207856E+03  0.12699999809E+01 0.  1.
</event>
<event>
 5   0  0.6539134E-05  0.1700483E+04  0.7818609E-02  0.8761089E-01
       -1   -1    0    0    0  501  0.00000000000E+00  0.00000000000E+00  0.52296021691E+03  0.52296021693E+03  0.50400001928E-02 0. -1.
        1   -1    0    0  501    0  0.00000000000E+00  0.00000000000E+00 -0.13823429522E+04  0.13823429522E+04  0.50400001928E-02 0.  1.
    10030    2    1    2    0    0  0.00000000000E+00  0.00000000000E+00 -0.85938273532E+03  0.19053031692E+04  0.17004827199E+04 0.  0.
        2    1    3    3  502    0  0.15830448366E+03  0.70137177682E+03 -0.93814252717E+03  0.11819873435E+04  0.25500000920E-02 0.  1.
       -2    1    3    3    0  502 -0.15830448366E+03 -0.70137177682E+03  0.78759791849E+02  0.72331582568E+03  0.25500000920E-02 0. -1.
</event>
<event>
 5   0  0.1285639E-04  0.1698338E+04  0.7818609E-02  0.8762313E-01
       -2   -1    0    0    0  501  0.00000000000E+00  0.00000000000E+00  0.11409430241E+04  0.11409430241E+04  0.25500000920E-02 0. -1.
        2   -1    0    0  501    0  0.00000000000E+00  0.00000000000E+00 -0.63201045629E+03  0.63201045629E+03  0.25500000920E-02 0.  1.
    10030    2    1    2    0    0  0.00000000000E+00  0.00000000000E+00  0.50893256777E+03  0.17729534804E+04  0.16983379184E+04 0.  0.
        4    1    3    3  502    0 -0.36960641117E+03  0.76355513638E+03  0.21456445304E+03  0.87502277849E+03  0.12699999809E+01 0.  1.
       -4    1    3    3    0  502  0.36960641117E+03 -0.76355513638E+03  0.29436811473E+03  0.89793070186E+03  0.12699999809E+01 0. -1.
</event>
<event>
 5   0  0.6834837E-05  0.1703863E+04  0.7818609E-02  0.8759164E-01
       -1   -1    0    0    0  501  0.00000000000E+00  0.00000000000E+00  0.13842703625E+04  0.13842703625E+04  0.50400001928E-02 0. -1.
        1   -1    0    0  501    0  0.00000000000E+00  0.00000000000E+00 -0.52431015560E+03  0.52431015562E+03  0.50400001928E-02 0.  1.
    10030    2    1    2    0    0  0.00000000000E+00  0.00000000000E+00  0.85996020692E+03  0.19085805182E+04  0.17038626813E+04 0.  0.
        5    1    3    3  502    0 -0.29640107405E+03 -0.74243400582E+03  0.75981236453E+03  0.11029046962E+04  0.46999998093E+01 0. -1.
       -5    1    3    3    0  502  0.29640107405E+03  0.74243400582E+03  0.10014784239E+03  0.80567582192E+03  0.46999998093E+01 0.  1.
</event>
<event>
 5   0  0.1333546E-04  0.1690259E+04  0.7818609E-02  0.8766940E-01
        2   -1    0    0  501    0  0.00000000000E+00  0.00000000000E+00  0.80959146079E+03  0.80959146080E+03  0.25500000920E-02 0. -1.
       -2   -1    0    0    0  501  0.00000000000E+00  0.00000000000E+00 -0.88222756416E+03  0.88222756416E+03  0.25500000920E-02 0.  1.
    10030    2    1    2    0    0  0.00000000000E+00  0.00000000000E+00 -0.72636103364E+02  0.16918190250E+04  0.16902590363E+04 0.  0.
        5    1    3    3  502    0 -0.32359645250E+03  0.28344607939E+03 -0.76442702927E+03  0.87716994765E+03  0.46999998093E+01 0.  1.
       -5    1    3    3    0  502  0.32359645250E+03 -0.28344607939E+03  0.69179092590E+03  0.81464907730E+03  0.46999998093E+01 0. -1.
</event>
<event>
 5   0  0.6539134E-05  0.1705453E+04  0.7818609E-02  0.8758260E-01
       -1   -1    0    0    0  501  0.00000000000E+00  0.00000000000E+00  0.76466682528E+03  0.76466682529E+03  0.50400001928E-02 0. -1.
        1   -1    0    0  501    0  0.00000000000E+00  0.00000000000E+00 -0.95092737670E+03  0.95092737671E+03  0.50400001928E-02 0.  1.
    10030    2    1    2    0    0  0.00000000000E+00  0.00000000000E+00 -0.18626055142E+03  0.17155942020E+04  0.17054531577E+04 0.  0.
        2    1    3    3  502    0  0.18064470119E+03  0.10383440098E+03 -0.92492588691E+03  0.94810441787E+03  0.25500000920E-02 0.  1.
       -2    1    3    3    0  502 -0.18064470119E+03 -0.10383440098E+03  0.73866533549E+03  0.76748978414E+03  0.25500000920E-02 0. -1.
</event>
<event>
 5   0  0.1255362E-04  0.1701706E+04  0.7818609E-02  0.8760392E-01
       -2   -1    0    0    0  501  0.00000000000E+00  0.00000000000E+00  0.51619740476E+03  0.51619740477E+03  0.25500000920E-02 0.  1.
        2   -1    0    0  501    0  0.00000000000E+00  0.00000000000E+00 -0.14024690710E+04  0.14024690710E+04  0.25500000920E-02 0. -1.
    10030    2    1    2    0    0  0.00000000000E+00  0.00000000000E+00 -0.88627166627E+03  0.19186664758E+04  0.17017060789E+04 0.  0.
        1    1    3    3  502    0 -0.30750590254E+03 -0.67031102958E+03  0.35318629437E+02  0.73832524139E+03  0.50400001928E-02 0.  1.
       -1    1    3    3    0  502  0.30750590254E+03  0.67031102958E+03 -0.92159029570E+03  0.11803412344E+04  0.50400001928E-02 0. -1.
</event>
<event>
 5   0  0.6834837E-05  0.1698682E+04  0.7818609E-02  0.8762116E-01
        1   -1    0    0  501    0  0.00000000000E+00  0.00000000000E+00  0.62897353661E+03  0.62897353663E+03  0.50400001928E-02 0.  1.
       -1   -1    0    0    0  501  0.00000000000E+00  0.00000000000E+00 -0.11469167940E+04  0.11469167940E+04  0.50400001928E-02 0. -1.
    10030    2    1    2    0    0  0.00000000000E+00  0.00000000000E+00 -0.51794325737E+03  0.17758903306E+04  0.16986822094E+04 0.  0.
        5    1    3    3  502    0  0.11960605974E+03  0.55311057474E+03  0.40315624199E+03  0.69483376636E+03  0.46999998093E+01 0.  1.
       -5    1    3    3    0  502 -0.11960605974E+03 -0.55311057474E+03 -0.92109949936E+03  0.10810565643E+04  0.46999998093E+01 0. -1.
</event>
<event>
 5   0  0.6539134E-05  0.1700182E+04  0.7818609E-02  0.8761261E-01
       -1   -1    0    0    0  501  0.00000000000E+00  0.00000000000E+00  0.40963392291E+03  0.40963392294E+03  0.50400001928E-02 0. -1.
        1   -1    0    0  501    0  0.00000000000E+00  0.00000000000E+00 -0.17641465827E+04  0.17641465827E+04  0.50400001928E-02 0.  1.
    10030    2    1    2    0    0  0.00000000000E+00  0.00000000000E+00 -0.13545126598E+04  0.21737805057E+04  0.17001815024E+04 0.  0.
        2    1    3    3  502    0 -0.56267987340E+03  0.59432357200E+03 -0.38339616398E+03  0.90378192432E+03  0.25500000920E-02 0. -1.
       -2    1    3    3    0  502  0.56267987340E+03 -0.59432357200E+03 -0.97111649584E+03  0.12699985814E+04  0.25500000920E-02 0.  1.
</event>
<event>
 5   0  0.1269175E-04  0.1705792E+04  0.7818609E-02  0.8758068E-01
       -2   -1    0    0    0  501  0.00000000000E+00  0.00000000000E+00  0.11198149126E+04  0.11198149126E+04  0.25500000920E-02 0. -1.
        2   -1    0    0  501    0  0.00000000000E+00  0.00000000000E+00 -0.64959976086E+03  0.64959976087E+03  0.25500000920E-02 0.  1.
    10030    2    1    2    0    0  0.00000000000E+00  0.00000000000E+00  0.47021515171E+03  0.17694146734E+04  0.17057918975E+04 0.  0.
        2    1    3    3  502    0 -0.45310536139E+03 -0.54360925494E+03 -0.25868990559E+03  0.75348255310E+03  0.25500000920E-02 0.  1.
       -2    1    3    3    0  502  0.45310536139E+03  0.54360925494E+03  0.72890505730E+03  0.10159321203E+04  0.25500000920E-02 0. -1.
</event>
<event>
 5   0  0.1269175E-04  0.1658829E+04  0.7818609E-02  0.8785201E-01
        2   -1    0    0  501    0  0.00000000000E+00  0.00000000000E+00  0.18586608032E+04  0.18586608032E+04  0.25500000920E-02 0.  1.
       -2   -1    0    0    0  501  0.00000000000E+00  0.00000000000E+00 -0.37012031723E+03  0.37012031724E+03  0.25500000920E-02 0. -1.
    10030    2    1    2    0    0  0.00000000000E+00  0.00000000000E+00  0.14885404859E+04  0.22287811204E+04  0.16588286543E+04 0.  0.
        2    1    3    3  502    0  0.25186650911E+03 -0.45223818883E+03  0.16149853189E+04  0.16959167722E+04  0.25500000920E-02 0.  1.
       -2    1    3    3    0  502 -0.25186650911E+03  0.45223818883E+03 -0.12644483296E+03  0.53286434825E+03  0.25500000920E-02 0. -1.
</event>
<event>
 5   0  0.1285639E-04  0.1699017E+04  0.7818609E-02  0.8761925E-01
       -2   -1    0    0    0  501  0.00000000000E+00  0.00000000000E+00  0.11897458187E+04  0.11897458187E+04  0.25500000920E-02 0.  1.
        2   -1    0    0  501    0  0.00000000000E+00  0.00000000000E+00 -0.60657077111E+03  0.60657077111E+03  0.25500000920E-02 0. -1.
    10030    2    1    2    0    0  0.00000000000E+00  0.00000000000E+00  0.58317504759E+03  0.17963165898E+04  0.16990174086E+04 0.  0.
        4    1    3    3  502    0 -0.36456115272E+03 -0.22667517444E+03 -0.48345328778E+03  0.64654092148E+03  0.12699999809E+01 0. -1.
       -4    1    3    3    0  502  0.36456115272E+03  0.22667517444E+03  0.10666283354E+04  0.11497756683E+04  0.12699999809E+01 0.  1.
</event>
<event>
 5   0  0.1269175E-04  0.1707666E+04  0.7818609E-02  0.8757004E-01
        2   -1    0    0  501    0  0.00000000000E+00  0.00000000000E+00  0.14486423101E+04  0.14486423101E+04  0.25500000920E-02 0. -1.
       -2   -1    0    0    0  501  0.00000000000E+00  0.00000000000E+00 -0.50325111822E+03  0.50325111823E+03  0.25500000920E-02 0.  1.
    10030    2    1    2    0    0  0.00000000000E+00  0.00000000000E+00  0.94539119192E+03  0.19518934284E+04  0.17076660827E+04 0.  0.
        2    1    3    3  502    0  0.31671304848E+03  0.32978373361E+02 -0.43284331920E+03  0.53735283304E+03  0.25500000920E-02 0.  1.
       -2    1    3    3    0  502 -0.31671304848E+03 -0.32978373361E+02  0.13782345111E+04  0.14145405953E+04  0.25500000920E-02 0. -1.
</event>
<event>
 5   0  0.1269175E-04  0.1704732E+04  0.7818609E-02  0.8758670E-01
       -2   -1    0    0    0  501  0.00000000000E+00  0.00000000000E+00  0.58426963356E+03  0.58426963356E+03  0.25500000920E-02 0.  1.
        2   -1    0    0  501    0  0.00000000000E+00  0.00000000000E+00 -0.12434796178E+04  0.12434796178E+04  0.25500000920E-02 0. -1.
    10030    2    1    2    0    0  0.00000000000E+00  0.00000000000E+00 -0.65920998425E+03  0.18277492514E+04  0.17047315104E+04 0.  0.
        2    1    3    3  502    0 -0.65211534565E+03 -0.31888451750E+03 -0.80859367331E+03  0.10866303364E+04  0.25500000920E-02 0. -1.
       -2    1    3    3    0  502  0.65211534565E+03  0.31888451750E+03  0.14938368905E+03  0.74111891495E+03  0.25500000920E-02 0.  1.
</event>
<event>
 5   0  0.1393870E-04  0.1683007E+04  0.7818609E-02  0.8771116E-01
        2   -1    0    0  501    0  0.00000000000E+00  0.00000000000E+00  0.11347251262E+04  0.11347251262E+04  0.25500000920E-02 0.  1.
       -2   -1    0    0    0  501  0.00000000000E+00  0.00000000000E+00 -0.62405285765E+03  0.62405285765E+03  0.25500000920E-02 0. -1.
    10030    2    1    2    0    0  0.00000000000E+00  0.00000000000E+00  0.51067226857E+03  0.17587779839E+04  0.16830073769E+04 0.  0.
        3    1    3    3  502    0  0.61781324764E+03 -0.51411780846E+03  0.51579200086E+03  0.95501399377E+03  0.10100000352E+00 0.  1.
       -3    1    3    3    0  502 -0.61781324764E+03  0.51411780846E+03 -0.51197322890E+01  0.80376399011E+03  0.10100000352E+00 0. -1.
</event>
<event>
 5   0  0.6564887E-05  0.1685449E+04  0.7818609E-02  0.8769707E-01
        1   -1    0    0  501    0  0.00000000000E+00  0.00000000000E+00  0.74301806997E+03  0.74301806998E+03  0.50400001928E-02 0.  1.
       -1   -1    0    0    0  501  0.00000000000E+00  0.00000000000E+00 -0.95581011115E+03  0.95581011116E+03  0.50400001928E-02 0. -1.
    10030    2    1    2    0    0  0.00000000000E+00  0.00000000000E+00 -0.21279204118E+03  0.16988281811E+04  0.16854485267E+04 0.  0.
        4    1    3    3  502    0  0.66137066046E+02  0.83217103195E+03 -0.22263641120E+03  0.86397414453E+03  0.12699999809E+01 0. -1.
       -4    1    3    3    0  502 -0.66137066046E+02 -0.83217103195E+03  0.98443700180E+01  0.83485403661E+03  0.12699999809E+01 0.  1.
</event>
<event>
 5   0  0.6601906E-05  0.1700054E+04  0.7818609E-02  0.8761333E-01
        1   -1    0    0  501    0  0.00000000000E+00  0.00000000000E+00  0.11360377754E+04  0.11360377754E+04  0.50400001928E-02 0. -1.
       -1   -1    0    0    0  501  0.00000000000E+00  0.00000000000E+00 -0.63602285842E+03  0.63602285844E+03  0.50400001928E-02 0.  1.
    10030    2    1    2    0    0  0.00000000000E+00  0.00000000000E+00  0.50001491701E+03  0.17720606339E+04  0.17000541088E+04 0.  0.
        1    1    3    3  502    0  0.12193440192E+02  0.34103806770E+03  0.10614999732E+04  0.11150057564E+04  0.50400001928E-02 0. -1.
       -1    1    3    3    0  502 -0.12193440192E+02 -0.34103806770E+03 -0.56148505623E+03  0.65705487747E+03  0.50400001928E-02 0.  1.
</event>
<event>
 5   0  0.6615842E-05  0.1702654E+04  0.7818609E-02  0.8759852E-01
       -1   -1    0    0    0  501  0.00000000000E+00  0.00000000000E+00  0.69896632695E+03  0.69896632697E+03  0.50400001928E-02 0.  1.
        1   -1    0    0  501    0  0.00000000000E+00  0.00000000000E+00 -0.10368989748E+04  0.10368989748E+04  0.50400001928E-02 0. -1.
    10030    2    1    2    0    0  0.00000000000E+00  0.00000000000E+00 -0.33793264784E+03  0.17358653018E+04  0.17026537732E+04 0.  0.
        3    1    3    3  502    0  0.78415217425E+03 -0.28720064477E+03 -0.27396403532E+00  0.83509216736E+03  0.10100000352E+00 0.  1.
       -3    1    3    3    0  502 -0.78415217425E+03  0.28720064477E+03 -0.33765868380E+03  0.90077313441E+03  0.10100000352E+00 0. -1.
</event>
<event>
 5   0  0.6539134E-05  0.1703997E+04  0.7818609E-02  0.8759088E-01
       -1   -1    0    0    0  501  0.00000000000E+00  0.00000000000E+00  0.32977302566E+03  0.32977302570E+03  0.50400001928E-02 0.  1.
        1   -1    0    0  501    0  0.00000000000E+00  0.00000000000E+00 -0.22012142141E+04  0.22012142141E+04  0.50400001928E-02 0. -1.
    10030    2    1    2    0    0  0.00000000000E+00  0.00000000000E+00 -0.18714411885E+04  0.25309872398E+04  0.17039965629E+04 0.  0.
        2    1    3    3  502    0 -0.23740163913E+02  0.24221899089E+03 -0.21484833815E+04  0.21622244277E+04  0.25500000920E-02 0. -1.
       -2    1    3    3    0  502  0.23740163913E+02 -0.24221899089E+03  0.27704219303E+03  0.36876281219E+03  0.25500000920E-02 0.  1.
</event>
<event>
 5   0  0.6615842E-05  0.1701646E+04  0.7818609E-02  0.8760426E-01
        1   -1    0    0  501    0  0.00000000000E+00  0.00000000000E+00  0.10981476125E+04  0.10981476126E+04  0.50400001928E-02 0.  1.
       -1   -1    0    0    0  501  0.00000000000E+00  0.00000000000E+00 -0.65920083914E+03  0.65920083916E+03  0.50400001928E-02 0. -1.
    10030    2    1    2    0    0  0.00000000000E+00  0.00000000000E+00  0.43894677341E+03  0.17573484517E+04  0.17016460592E+04 0.  0.
        3    1    3    3  502    0  0.32081743188E+03 -0.37657409107E+03  0.93435237136E+03  0.10572351842E+04  0.10100000352E+00 0.  1.
       -3    1    3    3    0  502 -0.32081743188E+03  0.37657409107E+03 -0.49540559796E+03  0.70011326752E+03  0.10100000352E+00 0. -1.
</event>
<event>
 5   0  0.1285639E-04  0.1704075E+04  0.7818609E-02  0.8759044E-01
        2   -1    0    0  501    0  0.00000000000E+00  0.00000000000E+00  0.15483623692E+04  0.15483623692E+04  0.25500000920E-02 0. -1.
       -2   -1    0    0    0  501  0.00000000000E+00  0.00000000000E+00 -0.46886159593E+03  0.46886159594E+03  0.25500000920E-02 0.  1.
    10030    2    1    2    0    0  0.00000000000E+00  0.00000000000E+00  0.10795007733E+04  0.20172239651E+04  0.17040747067E+04 0.  0.
        4    1    3    3  502    0  0.53122808463E+03  0.62581304753E+03  0.26949709976E+03  0.86398816429E+03  0.12699999809E+01 0.  1.
       -4    1    3    3    0  502 -0.53122808463E+03 -0.62581304753E+03  0.81000367351E+03  0.11532358009E+04  0.12699999809E+01 0. -1.
</event>
<event>
 5   0  0.1285639E-04  0.1699406E+04  0.7818609E-02  0.8761703E-01
       -2   -1    0    0    0  501  0.00000000000E+00  0.00000000000E+00  0.78232663663E+03  0.78232663664E+03  0.25500000920E-02 0. -1.
        2   -1    0    0  501    0  0.00000000000E+00  0.00000000000E+00 -0.92288151814E+03  0.92288151814E+03  0.25500000920E-02 0.  1.
    10030    2    1    2    0    0  0.00000000000E+00  0.00000000000E+00 -0.14055488151E+03  0.17052081548E+04  0.16994055362E+04 0.  0.
        4    1    3    3  502    0 -0.75752849062E+03  0.14849953902E+03 -0.42658377490E+03  0.88197327460E+03  0.12699999809E+01 0. -1.
       -4    1    3    3    0  502  0.75752849062E+03 -0.14849953902E+03  0.28602889340E+03  0.82323488018E+03  0.12699999809E+01 0.  1.
</event>
<event>
 5   0  0.1269175E-04  0.1699921E+04  0.7818609E-02  0.8761409E-01
        2   -1    0    0  501    0  0.00000000000E+00  0.00000000000E+00  0.15230751822E+04  0.15230751822E+04  0.25500000920E-02 0.  1.
       -2   -1    0    0    0  501  0.00000000000E+00  0.00000000000E+00 -0.47432531592E+03  0.47432531592E+03  0.25500000920E-02 0. -1.
    10030    2    1    2    0    0  0.00000000000E+00  0.00000000000E+00  0.10487498663E+04  0.19974004981E+04  0.16999213122E+04 0.  0.
        2    1    3    3  502    0 -0.45945087247E+02 -0.83814577368E+03  0.36746204302E+03  0.91631197856E+03  0.25500000920E-02 0.  1.
       -2    1    3    3    0  502  0.45945087247E+02  0.83814577368E+03  0.68128782323E+03  0.10810885195E+04  0.25500000920E-02 0. -1.
</event>
<event>
 5   0  0.4720875E-05  0.1704534E+04  0.7818609E-02  0.8758783E-01
        3   -1    0    0  501    0  0.00000000000E+00  0.00000000000E+00  0.33802833543E+03  0.33802835052E+03  0.10100000352E+00 0. -1.
       -3   -1    0    0    0  501  0.00000000000E+00  0.00000000000E+00 -0.21488113955E+04  0.21488113979E+04  0.10100000352E+00 0.  1.
    10030    2    1    2    0    0  0.00000000000E+00  0.00000000000E+00 -0.18107830601E+04  0.24868397484E+04  0.17045341427E+04 0.  0.
        1    1    3    3  502    0  0.42008013104E+03  0.16154198648E+03  0.15050946013E+03  0.47456951810E+03  0.50400001928E-02 0. -1.
       -1    1    3    3    0  502 -0.42008013104E+03 -0.16154198648E+03 -0.19612925202E+04  0.20122702303E+04  0.50400001928E-02 0.  1.
</event>
<event>
 5   0  0.6564887E-05  0.1698435E+04  0.7818609E-02  0.8762258E-01
       -1   -1    0    0    0  501  0.00000000000E+00  0.00000000000E+00  0.67215250541E+03  0.67215250543E+03  0.50400001928E-02 0.  1.
        1   -1    0    0  501    0  0.00000000000E+00  0.00000000000E+00 -0.10729264586E+04  0.10729264586E+04  0.50400001928E-02 0. -1.
    10030    2    1    2    0    0  0.00000000000E+00  0.00000000000E+00 -0.40077395315E+03  0.17450789640E+04  0.16984348174E+04 0.  0.
        4    1    3    3  502    0 -0.71090404177E+03  0.42920788787E+03 -0.17843411378E+02  0.83061661905E+03  0.12699999809E+01 0.  1.
       -4    1    3    3    0  502  0.71090404177E+03 -0.42920788787E+03 -0.38293054177E+03  0.91446234495E+03  0.12699999809E+01 0. -1.
</event>
<event>
 5   0  0.6615842E-05  0.1698623E+04  0.7818609E-02  0.8762150E-01
        1   -1    0    0  501    0  0.00000000000E+00  0.00000000000E+00  0.51411803438E+03  0.51411803440E+03  0.50400001928E-02 0.  1.
       -1   -1    0    0    0  501  0.00000000000E+00  0.00000000000E+00 -0.14030442852E+04  0.14030442852E+04  0.50400001928E-02 0. -1.
    10030    2    1    2    0    0  0.00000000000E+00  0.00000000000E+00 -0.88892625080E+03  0.19171623196E+04  0.16986234074E+04 0.  0.
        3    1    3    3  502    0 -0.74521396670E+03 -0.39665931530E+03 -0.33950480047E+03  0.90991537427E+03  0.10100000352E+00 0. -1.
       -3    1    3    3    0  502  0.74521396670E+03  0.39665931530E+03 -0.54942145032E+03  0.10072469453E+04  0.10100000352E+00 0.  1.
</event>
<event>
 5   0  0.6564887E-05  0.1701217E+04  0.7818609E-02  0.8760670E-01
        1   -1    0    0  501    0  0.00000000000E+00  0.00000000000E+00  0.11389589905E+04  0.11389589906E+04  0.50400001928E-02 0. -1.
       -1   -1    0    0    0  501  0.00000000000E+00  0.00000000000E+00 -0.63526006366E+03  0.63526006368E+03  0.50400001928E-02 0.  1.
    10030    2    1    2    0    0  0.00000000000E+00  0.00000000000E+00  0.50369892689E+03  0.17742190542E+04  0.17012174004E+04 0.  0.
        4    1    3    3  502    0  0.41702954542E+03 -0.73881497938E+03  0.31590437015E+03  0.90529464788E+03  0.12699999809E+01 0. -1.
       -4    1    3    3    0  502 -0.41702954542E+03  0.73881497938E+03  0.18779455674E+03  0.86892440635E+03  0.12699999809E+01 0.  1.
</event>
<event>
 5   0  0.6564887E-05  0.1702641E+04  0.7818609E-02  0.8759860E-01
        1   -1    0    0  501    0  0.00000000000E+00  0.00000000000E+00  0.64682984724E+03  0.64682984726E+03  0.50400001928E-02 0.  1.
       -1   -1    0    0    0  501  0.00000000000E+00  0.00000000000E+00 -0.11204594090E+04  0.11204594090E+04  0.50400001928E-02 0. -1.
    10030    2    1    2    0    0  0.00000000000E+00  0.00000000000E+00 -0.47362956180E+03  0.17672892563E+04  0.17026409938E+04 0.  0.
        4    1    3    3  502    0 -0.40918904603E+03  0.71036429462E+03  0.14480808158E+01  0.81979071494E+03  0.12699999809E+01 0.  1.
       -4    1    3    3    0  502  0.40918904603E+03 -0.71036429462E+03 -0.47507764261E+03  0.94749854136E+03  0.12699999809E+01 0. -1.
</event>
<event>
 5   0  0.1255362E-04  0.1700670E+04  0.7818609E-02  0.8760982E-01
       -2   -1    0    0    0  501  0.00000000000E+00  0.00000000000E+00  0.53071900755E+03  0.53071900756E+03  0.25500000920E-02 0.  1.
        2   -1    0    0  501    0  0.00000000000E+00  0.00000000000E+00 -0.13624340028E+04  0.13624340028E+04  0.25500000920E-02 0. -1.
    10030    2    1    2    0    0  0.00000000000E+00  0.00000000000E+00 -0.83171499527E+03  0.18931530104E+04  0.17006700113E+04 0.  0.
        1    1    3    3  502    0 -0.55296019940E+03 -0.45549439308E+03 -0.92577384250E+03  0.11705969980E+04  0.50400001928E-02 0. -1.
       -1    1    3    3    0  502  0.55296019940E+03  0.45549439308E+03  0.94058847237E+02  0.72255601238E+03  0.50400001928E-02 0.  1.
</event>
<event>
 5   0  0.1269175E-04  0.1700604E+04  0.7818609E-02  0.8761020E-01
        2   -1    0    0  501    0  0.00000000000E+00  0.00000000000E+00  0.19653927844E+04  0.19653927844E+04  0.25500000920E-02 0. -1.
       -2   -1    0    0    0  501  0.00000000000E+00  0.00000000000E+00 -0.36787244209E+03  0.36787244210E+03  0.25500000920E-02 0.  1.
    10030    2    1    2    0    0  0.00000000000E+00  0.00000000000E+00  0.15975203423E+04  0.23332652265E+04  0.17006044141E+04 0.  0.
        2    1    3    3  502    0  0.40483409707E+03  0.46399768880E+03  0.16032717049E+04  0.17174587800E+04  0.25500000920E-02 0. -1.
       -2    1    3    3    0  502 -0.40483409707E+03 -0.46399768880E+03 -0.57513625759E+01  0.61580644649E+03  0.25500000920E-02 0.  1.
</event>
<event>
 5   0  0.1393870E-04  0.1705245E+04  0.7818609E-02  0.8758379E-01
       -2   -1    0    0    0  501  0.00000000000E+00  0.00000000000E+00  0.43655538579E+03  0.43655538579E+03  0.25500000920E-02 0. -1.
        2   -1    0    0  501    0  0.00000000000E+00  0.00000000000E+00 -0.16652300836E+04  0.16652300836E+04  0.25500000920E-02 0.  1.
    10030    2    1    2    0    0  0.00000000000E+00  0.00000000000E+00 -0.12286746979E+04  0.21017854694E+04  0.17052450400E+04 0.  0.
        3    1    3    3  502    0  0.70596732733E+03 -0.24508956771E+03 -0.11202898824E+04  0.13466655837E+04  0.10100000352E+00 0.  1.
       -3    1    3    3    0  502 -0.70596732733E+03  0.24508956771E+03 -0.10838481548E+03  0.75511988578E+03  0.10100000352E+00 0. -1.
</event>
<event>
 5   0  0.1333546E-04  0.1703014E+04  0.7818609E-02  0.8759647E-01
        2   -1    0    0  501    0  0.00000000000E+00  0.00000000000E+00  0.16862163657E+04  0.16862163657E+04  0.25500000920E-02 0.  1.
       -2   -1    0    0    0  501  0.00000000000E+00  0.00000000000E+00 -0.42999471138E+03  0.42999471139E+03  0.25500000920E-02 0. -1.
    10030    2    1    2    0    0  0.00000000000E+00  0.00000000000E+00  0.12562216543E+04  0.21162110771E+04  0.17030139395E+04 0.  0.
        5    1    3    3  502    0 -0.14993845651E+03  0.21519791141E+03  0.16347540032E+04  0.16556673648E+04  0.46999998093E+01 0.  1.
       -5    1    3    3    0  502  0.14993845651E+03 -0.21519791141E+03 -0.37853234887E+03  0.46054371232E+03  0.46999998093E+01 0. -1.
</event>
<event>
 5   0  0.6834837E-05  0.1697890E+04  0.7818609E-02  0.8762569E-01
        1   -1    0    0  501    0  0.00000000000E+00  0.00000000000E+00  0.12360279578E+04  0.12360279578E+04  0.50400001928E-02 0. -1.
       -1   -1    0    0    0  501  0.00000000000E+00  0.00000000000E+00 -0.58308336381E+03  0.58308336383E+03  0.50400001928E-02 0.  1.
    10030    2    1    2    0    0  0.00000000000E+00  0.00000000000E+00  0.65294459398E+03  0.18191113216E+04  0.16978896777E+04 0.  0.
        5    1    3    3  502    0 -0.24436214887E+03 -0.23630113500E+03  0.11599148007E+04  0.12087082034E+04  0.46999998093E+01 0. -1.
       -5    1    3    3    0  502  0.24436214887E+03  0.23630113500E+03 -0.50697020672E+03  0.61040311819E+03  0.46999998093E+01 0.  1.
</event>
<event>
 5   0  0.6539134E-05  0.1693284E+04  0.7818609E-02  0.8765204E-01
       -1   -1    0    0    0  501  0.00000000000E+00  0.00000000000E+00  0.84023953309E+03  0.84023953311E+03  0.50400001928E-02 0. -1.
        1   -1    0    0  501    0  0.00000000000E+00  0.00000000000E+00 -0.85309290511E+03  0.85309290513E+03  0.50400001928E-02 0.  1.
    10030    2    1    2    0    0  0.00000000000E+00  0.00000000000E+00 -0.12853372021E+02  0.16933324382E+04  0.16932836553E+04 0.  0.
        2    1    3    3  502    0 -0.40243638956E+03 -0.33893787686E+03  0.65689360115E+03  0.84163123471E+03  0.25500000920E-02 0. -1.
       -2    1    3    3    0  502  0.40243638956E+03  0.33893787686E+03 -0.66974697317E+03  0.85170120352E+03  0.25500000920E-02 0.  1.
</event>
<event>
 5   0  0.6834837E-05  0.1746898E+04  0.7818609E-02  0.8735059E-01
        1   -1    0    0  501    0  0.00000000000E+00  0.00000000000E+00  0.38907148799E+03  0.38907148802E+03  0.50400001928E-02 0. -1.
       -1   -1    0    0    0  501  0.00000000000E+00  0.00000000000E+00 -0.19608568629E+04  0.19608568629E+04  0.50400001928E-02 0.  1.
    10030    2    1    2    0    0  0.00000000000E+00  0.00000000000E+00 -0.15717853749E+04  0.23499283509E+04  0.17468983914E+04 0.  0.
        5    1    3    3  502    0  0.63333115440E+03  0.20788766244E+03 -0.15451457189E+04  0.16828021315E+04  0.46999998093E+01 0.  1.
       -5    1    3    3    0  502 -0.63333115440E+03 -0.20788766244E+03 -0.26639656015E+02  0.66712621939E+03  0.46999998093E+01 0. -1.
</event>
<event>
 5   0  0.1269175E-04  0.1682977E+04  0.7818609E-02  0.8771133E-01
       -2   -1    0    0    0  501  0.00000000000E+00  0.00000000000E+00  0.41953024939E+03  0.41953024940E+03  0.25500000920E-02 0. -1.
        2   -1    0    0  501    0  0.00000000000E+00  0.00000000000E+00 -0.16878464856E+04  0.16878464856E+04  0.25500000920E-02 0.  1.
    10030    2    1    2    0    0  0.00000000000E+00  0.00000000000E+00 -0.12683162362E+04  0.21073767350E+04  0.16829767165E+04 0.  0.
        2    1    3    3  502    0  0.62742743246E+03 -0.39304625762E+03 -0.11349520581E+04  0.13550891918E+04  0.25500000920E-02 0.  1.
       -2    1    3    3    0  502 -0.62742743246E+03  0.39304625762E+03 -0.13336417813E+03  0.75228754319E+03  0.25500000920E-02 0. -1.
</event>
<event>
 5   0  0.1255362E-04  0.1686606E+04  0.7818609E-02  0.8769041E-01
        2   -1    0    0  501    0  0.00000000000E+00  0.00000000000E+00  0.84804306406E+03  0.84804306407E+03  0.25500000920E-02 0.  1.
       -2   -1    0    0    0  501  0.00000000000E+00  0.00000000000E+00 -0.83858909558E+03  0.83858909559E+03  0.25500000920E-02 0. -1.
    10030    2    1    2    0    0  0.00000000000E+00  0.00000000000E+00  0.94539684801E+01  0.16866321597E+04  0.16866056636E+04 0.  0.
        1    1    3    3  502    0  0.53405402656E+03 -0.44615768286E+03 -0.47160946578E+03  0.84064610241E+03  0.50400001928E-02 0. -1.
       -1    1    3    3    0  502 -0.53405402656E+03  0.44615768286E+03  0.48106343426E+03  0.84598605725E+03  0.50400001928E-02 0.  1.
</event>
<event>
 5   0  0.1255362E-04  0.1692221E+04  0.7818609E-02  0.8765814E-01
       -2   -1    0    0    0  501  0.00000000000E+00  0.00000000000E+00  0.38659924822E+03  0.38659924823E+03  0.25500000920E-02 0. -1.
        2   -1    0    0  501    0  0.00000000000E+00  0.00000000000E+00 -0.18517958130E+04  0.18517958130E+04  0.25500000920E-02 0.  1.
    10030    2    1    2    0    0  0.00000000000E+00  0.00000000000E+00 -0.14651965648E+04  0.22383950613E+04  0.16922208712E+04 0.  0.
        1    1    3    3  502    0  0.32397608352E+01 -0.27913852543E+03  0.32393017943E+03  0.42762082924E+03  0.50400001928E-02 0. -1.
       -1    1    3    3    0  502 -0.32397608352E+01  0.27913852543E+03 -0.17891267442E+04  0.18107742320E+04  0.50400001928E-02 0.  1.
</event>
<event>
 5   0  0.1393870E-04  0.1691662E+04  0.7818609E-02  0.8766134E-01
       -2   -1    0    0    0  501  0.00000000000E+00  0.00000000000E+00  0.35953947849E+03  0.35953947850E+03  0.25500000920E-02 0.  1.
        2   -1    0    0  501    0  0.00000000000E+00  0.00000000000E+00 -0.19898523966E+04  0.19898523966E+04  0.25500000920E-02 0. -1.
    10030    2    1    2    0    0  0.00000000000E+00  0.00000000000E+00 -0.16303129181E+04  0.23493918751E+04  0.16916624876E+04 0.  0.
        3    1    3    3  502    0  0.77636259116E+03  0.25953889267E+03 -0.51946401834E+03  0.96950615589E+03  0.10100000352E+00 0.  1.
       -3    1    3    3    0  502 -0.77636259116E+03 -0.25953889267E+03 -0.11108488998E+04  0.13798857192E+04  0.10100000352E+00 0. -1.
</event>
<event>
 5   0  0.6564887E-05  0.1701435E+04  0.7818609E-02  0.8760546E-01
       -1   -1    0    0    0  501  0.00000000000E+00  0.00000000000E+00  0.46258783914E+03  0.46258783917E+03  0.50400001928E-02 0.  1.
        1   -1    0    0  501    0  0.00000000000E+00  0.00000000000E+00 -0.15645042548E+04  0.15645042548E+04  0.50400001928E-02 0. -1.
    10030    2    1    2    0    0  0.00000000000E+00  0.00000000000E+00 -0.11019164156E+04  0.20270920940E+04  0.17014354441E+04 0.  0.
        4    1    3    3  502    0  0.41561576140E+03  0.70111142895E+03 -0.84138977295E+03  0.11714230917E+04  0.12699999809E+01 0. -1.
       -4    1    3    3    0  502 -0.41561576140E+03 -0.70111142895E+03 -0.26052664268E+03  0.85566900223E+03  0.12699999809E+01 0.  1.
</event>
<event>
 5   0  0.1393870E-04  0.1699593E+04  0.7818609E-02  0.8761597E-01
        2   -1    0    0  501    0  0.00000000000E+00  0.00000000000E+00  0.91705835397E+03  0.91705835398E+03  0.25500000920E-02 0. -1.
       -2   -1    0    0    0  501  0.00000000000E+00  0.00000000000E+00 -0.78746784549E+03  0.78746784549E+03  0.25500000920E-02 0.  1.
    10030    2    1    2    0    0  0.00000000000E+00  0.00000000000E+00  0.12959050849E+03  0.17045261995E+04  0.16995928527E+04 0.  0.
        3    1    3    3  502    0  0.23222236115E+03  0.55719530389E+03 -0.53507144210E+03  0.80665686017E+03  0.10100000352E+00 0.  1.
       -3    1    3    3    0  502 -0.23222236115E+03 -0.55719530389E+03  0.66466195059E+03  0.89786933930E+03  0.10100000352E+00 0. -1.
</event>
<event>
 5   0  0.6539134E-05  0.1696435E+04  0.7818609E-02  0.8763400E-01
       -1   -1    0    0    0  501  0.00000000000E+00  0.00000000000E+00  0.35370572558E+03  0.35370572562E+03  0.50400001928E-02 0.  1.
        1   -1    0    0  501    0  0.00000000000E+00  0.00000000000E+00 -0.20340996029E+04  0.20340996029E+04  0.50400001928E-02 0. -1.
    10030    2    1    2    0    0  0.00000000000E+00  0.00000000000E+00 -0.16803938773E+04  0.23878053285E+04  0.16964347037E+04 0.  0.
        2    1    3    3  502    0 -0.91981513497E+02 -0.69105719734E+03 -0.16011601414E+03  0.71530258409E+03  0.25500000920E-02 0. -1.
       -2    1    3    3    0  502  0.91981513497E+02  0.69105719734E+03 -0.15202778631E+04  0.16725027444E+04  0.25500000920E-02 0.  1.
</event>
<event>
 5   0  0.4720875E-05  0.1692919E+04  0.7818609E-02  0.8765413E-01
       -4   -1    0    0    0  501  0.00000000000E+00  0.00000000000E+00  0.73796958333E+03  0.73797067612E+03  0.12699999809E+01 0.  1.
        4   -1    0    0  501    0  0.00000000000E+00  0.00000000000E+00 -0.97089660821E+03  0.97089743884E+03  0.12699999809E+01 0. -1.
    10030    2    1    2    0    0  0.00000000000E+00  0.00000000000E+00 -0.23292702489E+03  0.17088681150E+04  0.16929191461E+04 0.  0.
        4    1    3    3  502    0 -0.13672091386E+03  0.64751625790E+03  0.41626053725E+03  0.78182118180E+03  0.12699999809E+01 0.  1.
       -4    1    3    3    0  502  0.13672091386E+03 -0.64751625790E+03 -0.64918756214E+03  0.92704693316E+03  0.12699999809E+01 0. -1.
</event>
<event>
 5   0  0.1393870E-04  0.1706155E+04  0.7818609E-02  0.8757862E-01
       -2   -1    0    0    0  501  0.00000000000E+00  0.00000000000E+00  0.37561795806E+03  0.37561795807E+03  0.25500000920E-02 0. -1.
        2   -1    0    0  501    0  0.00000000000E+00  0.00000000000E+00 -0.19374500661E+04  0.19374500661E+04  0.25500000920E-02 0.  1.
    10030    2    1    2    0    0  0.00000000000E+00  0.00000000000E+00 -0.15618321080E+04  0.23130680242E+04  0.17061547851E+04 0.  0.
        3    1    3    3  502    0  0.77055020926E+03 -0.36365236837E+03 -0.83763567910E+03  0.11948322941E+04  0.10100000352E+00 0. -1.
       -3    1    3    3    0  502 -0.77055020926E+03  0.36365236837E+03 -0.72419642895E+03  0.11182357300E+04  0.10100000352E+00 0.  1.
</event>
<event>
 5   0  0.6539134E-05  0.1701093E+04  0.7818609E-02  0.8760741E-01
        1   -1    0    0  501    0  0.00000000000E+00  0.00000000000E+00  0.67750677546E+03  0.67750677548E+03  0.50400001928E-02 0. -1.
       -1   -1    0    0    0  501  0.00000000000E+00  0.00000000000E+00 -0.10677819760E+04  0.10677819760E+04  0.50400001928E-02 0.  1.
    10030    2    1    2    0    0  0.00000000000E+00  0.00000000000E+00 -0.39027520054E+03  0.17452887515E+04  0.17010932055E+04 0.  0.
        2    1    3    3  502    0 -0.70938082874E+03 -0.12925655891E+03  0.26769353397E+03  0.76914774026E+03  0.25500000920E-02 0. -1.
       -2    1    3    3    0  502  0.70938082874E+03  0.12925655891E+03 -0.65796873450E+03  0.97614101123E+03  0.25500000920E-02 0.  1.
</event>
<event>
 5   0  0.6539134E-05  0.1695315E+04  0.7818609E-02  0.8764041E-01
        1   -1    0    0  501    0  0.00000000000E+00  0.00000000000E+00  0.94606995074E+03  0.94606995075E+03  0.50400001928E-02 0. -1.
       -1   -1    0    0    0  501  0.00000000000E+00  0.00000000000E+00 -0.75948257031E+03  0.75948257033E+03  0.50400001928E-02 0.  1.
    10030    2    1    2    0    0  0.00000000000E+00  0.00000000000E+00  0.18658738042E+03  0.17055525211E+04  0.16953154726E+04 0.  0.
        2    1    3    3  502    0 -0.30261425344E+03 -0.31927310081E+03  0.82224677007E+03  0.93252369953E+03  0.25500000920E-02 0. -1.
       -2    1    3    3    0  502  0.30261425344E+03  0.31927310081E+03 -0.63565938965E+03  0.77302882155E+03  0.25500000920E-02 0.  1.
</event>
<event>
 5   0  0.6834837E-05  0.1695769E+04  0.7818609E-02  0.8763781E-01
        1   -1    0    0  501    0  0.00000000000E+00  0.00000000000E+00  0.70060451930E+03  0.70060451931E+03  0.50400001928E-02 0.  1.
       -1   -1    0    0    0  501  0.00000000000E+00  0.00000000000E+00 -0.10261249423E+04  0.10261249423E+04  0.50400001928E-02 0. -1.
    10030    2    1    2    0    0  0.00000000000E+00  0.00000000000E+00 -0.32552042300E+03  0.17267294616E+04  0.16957685832E+04 0.  0.
        5    1    3    3  502    0  0.59516258354E+03 -0.39962462330E+03 -0.62375928036E+03  0.95027157709E+03  0.46999998093E+01 0. -1.
       -5    1    3    3    0  502 -0.59516258354E+03  0.39962462330E+03  0.29823885737E+03  0.77645788452E+03  0.46999998093E+01 0.  1.
</event>
<event>
 5   0  0.1269175E-04  0.1693853E+04  0.7818609E-02  0.8764878E-01
        2   -1    0    0  501    0  0.00000000000E+00  0.00000000000E+00  0.63061320211E+03  0.63061320212E+03  0.25500000920E-02 0.  1.
       -2   -1    0    0    0  501  0.00000000000E+00  0.00000000000E+00 -0.11374396260E+04  0.11374396260E+04  0.25500000920E-02 0. -1.
    10030    2    1    2    0    0  0.00000000000E+00  0.00000000000E+00 -0.50682642393E+03  0.17680528282E+04  0.16938529391E+04 0.  0.
        2    1    3    3  502    0  0.88003444871E+02 -0.17642429488E+03 -0.11131530163E+04  0.11304776759E+04  0.25500000920E-02 0. -1.
       -2    1    3    3    0  502 -0.88003444871E+02  0.17642429488E+03  0.60632659235E+03  0.63757515222E+03  0.25500000920E-02 0.  1.
</event>
<event>
 5   0  0.1269175E-04  0.1706474E+04  0.7818609E-02  0.8757680E-01
        2   -1    0    0  501    0  0.00000000000E+00  0.00000000000E+00  0.71444301250E+03  0.71444301251E+03  0.25500000920E-02 0. -1.
       -2   -1    0    0    0  501  0.00000000000E+00  0.00000000000E+00 -0.10189946107E+04  0.10189946107E+04  0.25500000920E-02 0.  1.
    10030    2    1    2    0    0  0.00000000000E+00  0.00000000000E+00 -0.30455159823E+03  0.17334376232E+04  0.17064742359E+04 0.  0.
        2    1    3    3  502    0  0.27706110399E+03 -0.43681031344E+03 -0.84156032700E+03  0.98782077790E+03  0.25500000920E-02 0.  1.
       -2    1    3    3    0  502 -0.27706110399E+03  0.43681031344E+03  0.53700872877E+03  0.74561684534E+03  0.25500000920E-02 0. -1.
</event>
<event>
 5   0  0.6615842E-05  0.1699758E+04  0.7818609E-02  0.8761502E-01
       -1   -1    0    0    0  501  0.00000000000E+00  0.00000000000E+00  0.50157126747E+03  0.50157126749E+03  0.50400001928E-02 0. -1.
        1   -1    0    0  501    0  0.00000000000E+00  0.00000000000E+00 -0.14400633534E+04  0.14400633534E+04  0.50400001928E-02 0.  1.
    10030    2    1    2    0    0  0.00000000000E+00  0.00000000000E+00 -0.93849208593E+03  0.19416346209E+04  0.16997581021E+04 0.  0.
        3    1    3    3  502    0 -0.79079189550E+02  0.77586197176E+03 -0.85506483814E+03  0.11573034196E+04  0.10100000352E+00 0.  1.
       -3    1    3    3    0  502  0.79079189550E+02 -0.77586197176E+03 -0.83427247797E+02  0.78433120129E+03  0.10100000352E+00 0. -1.
</event>
<event>
 5   0  0.1285639E-04  0.1699320E+04  0.7818609E-02  0.8761752E-01
       -2   -1    0    0    0  501  0.00000000000E+00  0.00000000000E+00  0.37702344177E+03  0.37702344178E+03  0.25500000920E-02 0. -1.
        2   -1    0    0  501    0  0.00000000000E+00  0.00000000000E+00 -0.19147947651E+04  0.19147947651E+04  0.25500000920E-02 0.  1.
    10030    2    1    2    0    0  0.00000000000E+00  0.00000000000E+00 -0.15377713233E+04  0.22918182069E+04  0.16993204673E+04 0.  0.
        4    1    3    3  502    0  0.39795645919E+02  0.57708049730E+03  0.70452959096E+02  0.58272705973E+03  0.12699999809E+01 0. -1.
       -4    1    3    3    0  502 -0.39795645919E+02 -0.57708049730E+03 -0.16082242824E+04  0.17090911471E+04  0.12699999809E+01 0.  1.
</event>
<event>
 5   0  0.6601906E-05  0.1700677E+04  0.7818609E-02  0.8760978E-01
       -1   -1    0    0    0  501  0.00000000000E+00  0.00000000000E+00  0.10566633351E+04  0.10566633352E+04  0.50400001928E-02 0. -1.
        1   -1    0    0  501    0  0.00000000000E+00  0.00000000000E+00 -0.68430102861E+03  0.68430102863E+03  0.50400001928E-02 0.  1.
    10030    2    1    2    0    0  0.00000000000E+00  0.00000000000E+00  0.37236230654E+03  0.17409643638E+04  0.17006772853E+04 0.  0.
        1    1    3    3  502    0 -0.56183519813E+03 -0.63677588292E+03  0.23119428028E+03  0.88010971486E+03  0.50400001928E-02 0. -1.
       -1    1    3    3    0  502  0.56183519813E+03  0.63677588292E+03  0.14116802626E+03  0.86085464893E+03  0.50400001928E-02 0.  1.
</event>
<event>
 5   0  0.1269175E-04  0.1703771E+04  0.7818609E-02  0.8759217E-01
       -2   -1    0    0    0  501  0.00000000000E+00  0.00000000000E+00  0.50583452529E+03  0.50583452530E+03  0.25500000920E-02 0. -1.
        2   -1    0    0  501    0  0.00000000000E+00  0.00000000000E+00 -0.14346758401E+04  0.14346758401E+04  0.25500000920E-02 0.  1.
    10030    2    1    2    0    0  0.00000000000E+00  0.00000000000E+00 -0.92884131484E+03  0.19405103654E+04  0.17037706096E+04 0.  0.
        2    1    3    3  502    0  0.61327405323E+03  0.51417052660E+03 -0.13190918262E+03  0.81109581879E+03  0.25500000920E-02 0. -1.
       -2    1    3    3    0  502 -0.61327405323E+03 -0.51417052660E+03 -0.79693213222E+03  0.11294145466E+04  0.25500000920E-02 0.  1.
</event>
<event>
 5   0  0.6834837E-05  0.1587003E+04  0.7818609E-02  0.8828573E-01
       -1   -1    0    0    0  501  0.00000000000E+00  0.00000000000E+00  0.51702873321E+03  0.51702873324E+03  0.50400001928E-02 0. -1.
        1   -1    0    0  501    0  0.00000000000E+00  0.00000000000E+00 -0.12178132192E+04  0.12178132192E+04  0.50400001928E-02 0.  1.
    10030    2    1    2    0    0  0.00000000000E+00  0.00000000000E+00 -0.70078448601E+03  0.17348419525E+04  0.15870027423E+04 0.  0.
        5    1    3    3  502    0  0.60954620465E+03  0.41105043555E+03 -0.67671961362E+03  0.99923999200E+03  0.46999998093E+01 0.  1.
       -5    1    3    3    0  502 -0.60954620465E+03 -0.41105043555E+03 -0.24064872392E+02  0.73560196047E+03  0.46999998093E+01 0. -1.
</event>
<event>
 5   0  0.1255362E-04  0.1697954E+04  0.7818609E-02  0.8762532E-01
       -2   -1    0    0    0  501  0.00000000000E+00  0.00000000000E+00  0.50914979616E+03  0.50914979617E+03  0.25500000920E-02 0.  1.
        2   -1    0    0  501    0  0.00000000000E+00  0.00000000000E+00 -0.14156183182E+04  0.14156183182E+04  0.25500000920E-02 0. -1.
    10030    2    1    2    0    0  0.00000000000E+00  0.00000000000E+00 -0.90646852199E+03  0.19247681143E+04  0.16979538017E+04 0.  0.
        1    1    3    3  502    0 -0.15092532317E+03  0.62137528318E+02  0.49119738198E+03  0.51760447610E+03  0.50400001928E-02 0.  1.
       -1    1    3    3    0  502  0.15092532317E+03 -0.62137528318E+02 -0.13976659040E+04  0.14071636382E+04  0.50400001928E-02 0. -1.
</event>
<event>
 5   0  0.4720875E-05  0.1698814E+04  0.7818609E-02  0.8762041E-01
        4   -1    0    0  501    0  0.00000000000E+00  0.00000000000E+00  0.72809474419E+03  0.72809585181E+03  0.12699999809E+01 0.  1.
       -4   -1    0    0    0  501  0.00000000000E+00  0.00000000000E+00 -0.99092949472E+03  0.99093030855E+03  0.12699999809E+01 0. -1.
    10030    2    1    2    0    0  0.00000000000E+00  0.00000000000E+00 -0.26283475052E+03  0.17190261604E+04  0.16988139492E+04 0.  0.
        4    1    3    3  502    0  0.93212458360E+02 -0.78682865624E+03 -0.44116837553E+03  0.90687322440E+03  0.12699999809E+01 0. -1.
       -4    1    3    3    0  502 -0.93212458360E+02  0.78682865624E+03  0.17833362501E+03  0.81215293595E+03  0.12699999809E+01 0.  1.
</event>
<event>
 5   0  0.6601906E-05  0.1704213E+04  0.7818609E-02  0.8758965E-01
        1   -1    0    0  501    0  0.00000000000E+00  0.00000000000E+00  0.11355497210E+04  0.11355497210E+04  0.50400001928E-02 0. -1.
       -1   -1    0    0    0  501  0.00000000000E+00  0.00000000000E+00 -0.63941317055E+03  0.63941317057E+03  0.50400001928E-02 0.  1.
    10030    2    1    2    0    0  0.00000000000E+00  0.00000000000E+00  0.49613655046E+03  0.17749628916E+04  0.17042129532E+04 0.  0.
        1    1    3    3  502    0 -0.27941648741E+03  0.45896594160E+03  0.93685696648E+03  0.10800112428E+04  0.50400001928E-02 0. -1.
       -1    1    3    3    0  502  0.27941648741E+03 -0.45896594160E+03 -0.44072041602E+03  0.69495164876E+03  0.50400001928E-02 0.  1.
</event>
<event>
 5   0  0.6564887E-05  0.1697664E+04  0.7818609E-02  0.8762698E-01
        1   -1    0    0  501    0  0.00000000000E+00  0.00000000000E+00  0.89462411327E+03  0.89462411328E+03  0.50400001928E-02 0.  1.
       -1   -1    0    0    0  501  0.00000000000E+00  0.00000000000E+00 -0.80538350661E+03  0.80538350662E+03  0.50400001928E-02 0. -1.
    10030    2    1    2    0    0  0.00000000000E+00  0.00000000000E+00  0.89240606660E+02  0.17000076199E+04  0.16976636952E+04 0.  0.
        4    1    3    3  502    0  0.42441767054E+03  0.58970548274E+03 -0.39488312844E+03  0.82693241167E+03  0.12699999809E+01 0. -1.
       -4    1    3    3    0  502 -0.42441767054E+03 -0.58970548274E+03  0.48412373510E+03  0.87307520823E+03  0.12699999809E+01 0.  1.
</event>
<event>
 5   0  0.6564887E-05  0.1670938E+04  0.7818609E-02  0.8778115E-01
       -1   -1    0    0    0  501  0.00000000000E+00  0.00000000000E+00  0.65075287611E+03  0.65075287613E+03  0.50400001928E-02 0.  1.
        1   -1    0    0  501    0  0.00000000000E+00  0.00000000000E+00 -0.10726165723E+04  0.10726165723E+04  0.50400001928E-02 0. -1.
    10030    2    1    2    0    0  0.00000000000E+00  0.00000000000E+00 -0.42186369621E+03  0.17233694485E+04  0.16709378438E+04 0.  0.
        4    1    3    3  502    0 -0.50210428378E+03  0.66715028913E+03 -0.24025795864E+03  0.86886346434E+03  0.12699999809E+01 0.  1.
       -4    1    3    3    0  502  0.50210428378E+03 -0.66715028913E+03 -0.18160573757E+03  0.85450598412E+03  0.12699999809E+01 0. -1.
</event>
<event>
 5   0  0.1269175E-04  0.1691574E+04  0.7818609E-02  0.8766185E-01
        2   -1    0    0  501    0  0.00000000000E+00  0.00000000000E+00  0.11036853928E+04  0.11036853928E+04  0.25500000920E-02 0. -1.
       -2   -1    0    0    0  501  0.00000000000E+00  0.00000000000E+00 -0.64815143081E+03  0.64815143081E+03  0.25500000920E-02 0.  1.
    10030    2    1    2    0    0  0.00000000000E+00  0.00000000000E+00  0.45553396199E+03  0.17518368236E+04  0.16915735473E+04 0.  0.
        2    1    3    3  502    0  0.46344538360E+03  0.13650428368E+03  0.94671808219E+03  0.10628688396E+04  0.25500000920E-02 0. -1.
       -2    1    3    3    0  502 -0.46344538360E+03 -0.13650428368E+03 -0.49118412020E+03  0.68896798401E+03  0.25500000920E-02 0.  1.
</event>
<event>
 5   0  0.1269175E-04  0.1681634E+04  0.7818609E-02  0.8771909E-01
       -2   -1    0    0    0  501  0.00000000000E+00  0.00000000000E+00  0.10954839951E+04  0.10954839951E+04  0.25500000920E-02 0. -1.
        2   -1    0    0  501    0  0.00000000000E+00  0.00000000000E+00 -0.64535272639E+03  0.64535272639E+03  0.25500000920E-02 0.  1.
    10030    2    1    2    0    0  0.00000000000E+00  0.00000000000E+00  0.45013126868E+03  0.17408367215E+04  0.16816344227E+04 0.  0.
        2    1    3    3  502    0 -0.48190224427E+03  0.67819017836E+03  0.35101183305E+03  0.90298449489E+03  0.25500000920E-02 0.  1.
       -2    1    3    3    0  502  0.48190224427E+03 -0.67819017836E+03  0.99119435627E+02  0.83785222658E+03  0.25500000920E-02 0. -1.
</event>
<event>
 5   0  0.1285639E-04  0.1700867E+04  0.7818609E-02  0.8760870E-01
       -2   -1    0    0    0  501  0.00000000000E+00  0.00000000000E+00  0.34632135368E+03  0.34632135369E+03  0.25500000920E-02 0. -1.
        2   -1    0    0  501    0  0.00000000000E+00  0.00000000000E+00 -0.20883422371E+04  0.20883422371E+04  0.25500000920E-02 0.  1.
    10030    2    1    2    0    0  0.00000000000E+00  0.00000000000E+00 -0.17420208834E+04  0.24346635908E+04  0.17008674381E+04 0.  0.
        4    1    3    3  502    0  0.13189083321E+03 -0.34106173119E+03 -0.19700590036E+04  0.20037096564E+04  0.12699999809E+01 0.  1.
       -4    1    3    3    0  502 -0.13189083321E+03  0.34106173119E+03  0.22803812025E+03  0.43095393438E+03  0.12699999809E+01 0. -1.
</event>
<event>
 5   0  0.1333546E-04  0.1711271E+04  0.7818609E-02  0.8754962E-01
       -2   -1    0    0    0  501  0.00000000000E+00  0.00000000000E+00  0.27930929774E+03  0.27930929775E+03  0.25500000920E-02 0. -1.
        2   -1    0    0  501    0  0.00000000000E+00  0.00000000000E+00 -0.26211528361E+04  0.26211528361E+04  0.25500000920E-02 0.  1.
    10030    2    1    2    0    0  0.00000000000E+00  0.00000000000E+00 -0.23418435383E+04  0.29004621338E+04  0.17112712911E+04 0.  0.
        5    1    3    3  502    0  0.64848459923E+03  0.48106102307E+03 -0.16507307320E+04  0.18376305459E+04  0.46999998093E+01 0.  1.
       -5    1    3    3    0  502 -0.64848459923E+03 -0.48106102307E+03 -0.69111280628E+03  0.10628315880E+04  0.46999998093E+01 0. -1.
</event>
<event>
 5   0  0.1269175E-04  0.1671221E+04  0.7818609E-02  0.8777951E-01
       -2   -1    0    0    0  501  0.00000000000E+00  0.00000000000E+00  0.29687214173E+03  0.29687214174E+03  0.25500000920E-02 0. -1.
        2   -1    0    0  501    0  0.00000000000E+00  0.00000000000E+00 -0.23520050028E+04  0.23520050028E+04  0.25500000920E-02 0.  1.
    10030    2    1    2    0    0  0.00000000000E+00  0.00000000000E+00 -0.20551328611E+04  0.26488771446E+04  0.16712208263E+04 0.  0.
        2    1    3    3  502    0 -0.64228350218E+03 -0.31096717905E+03 -0.33847420229E+03  0.78980596937E+03  0.25500000920E-02 0. -1.
       -2    1    3    3    0  502  0.64228350218E+03  0.31096717905E+03 -0.17166586588E+04  0.18590711752E+04  0.25500000920E-02 0.  1.
</event>
<event>
 5   0  0.1255362E-04  0.1677804E+04  0.7818609E-02  0.8774126E-01
        2   -1    0    0  501    0  0.00000000000E+00  0.00000000000E+00  0.41569138894E+03  0.41569138895E+03  0.25500000920E-02 0. -1.
       -2   -1    0    0    0  501  0.00000000000E+00  0.00000000000E+00 -0.16929783266E+04  0.16929783266E+04  0.25500000920E-02 0.  1.
    10030    2    1    2    0    0  0.00000000000E+00  0.00000000000E+00 -0.12772869377E+04  0.21086697155E+04  0.16778039361E+04 0.  0.
        1    1    3    3  502    0  0.47585105299E+03  0.55995201102E+03 -0.13002453260E+03  0.74624852320E+03  0.50400001928E-02 0. -1.
       -1    1    3    3    0  502 -0.47585105299E+03 -0.55995201102E+03 -0.11472624051E+04  0.13624211923E+04  0.50400001928E-02 0.  1.
</event>
<event>
 5   0  0.1285639E-04  0.1702901E+04  0.7818609E-02  0.8759712E-01
       -2   -1    0    0    0  501  0.00000000000E+00  0.00000000000E+00  0.82808625350E+03  0.82808625350E+03  0.25500000920E-02 0.  1.
        2   -1    0    0  501    0  0.00000000000E+00  0.00000000000E+00 -0.87547385959E+03  0.87547385960E+03  0.25500000920E-02 0. -1.
    10030    2    1    2    0    0  0.00000000000E+00  0.00000000000E+00 -0.47387606095E+02  0.17035601131E+04  0.17029008996E+04 0.  0.
        4    1    3    3  502    0 -0.73654228261E+03  0.29978121184E+03  0.28073132043E+03  0.84331192107E+03  0.12699999809E+01 0. -1.
       -4    1    3    3    0  502  0.73654228261E+03 -0.29978121184E+03 -0.32811892653E+03  0.86024819203E+03  0.12699999809E+01 0.  1.
</event>
<event>
 5   0  0.1285639E-04  0.1701501E+04  0.7818609E-02  0.8760509E-01
        2   -1    0    0  501    0  0.00000000000E+00  0.00000000000E+00  0.50881651936E+03  0.50881651937E+03  0.25500000920E-02 0.  1.
       -2   -1    0    0    0  501  0.00000000000E+00  0.00000000000E+00 -0.14224706282E+04  0.14224706282E+04  0.25500000920E-02 0. -1.
    10030    2    1    2    0    0  0.00000000000E+00  0.00000000000E+00 -0.91365410880E+03  0.19312871475E+04  0.17015011654E+04 0.  0.
        4    1    3    3  502    0 -0.46217844614E+03 -0.23474763306E+03  0.30885545628E+03  0.60341418037E+03  0.12699999809E+01 0.  1.
       -4    1    3    3    0  502  0.46217844614E+03  0.23474763306E+03 -0.12225095651E+04  0.13278729672E+04  0.12699999809E+01 0. -1.
</event>
<event>
 5   0  0.1333546E-04  0.1700071E+04  0.7818609E-02  0.8761324E-01
        2   -1    0    0  501    0  0.00000000000E+00  0.00000000000E+00  0.72064984133E+03  0.72064984133E+03  0.25500000920E-02 0.  1.
       -2   -1    0    0    0  501  0.00000000000E+00  0.00000000000E+00 -0.10026505138E+04  0.10026505138E+04  0.25500000920E-02 0. -1.
    10030    2    1    2    0    0  0.00000000000E+00  0.00000000000E+00 -0.28200067248E+03  0.17233003551E+04  0.17000705088E+04 0.  0.
        5    1    3    3  502    0 -0.45940181094E+03  0.55031961325E+03  0.32200800668E+03  0.78588354543E+03  0.46999998093E+01 0.  1.
       -5    1    3    3    0  502  0.45940181094E+03 -0.55031961325E+03 -0.60400867916E+03  0.93741680970E+03  0.46999998093E+01 0. -1.
</event>
<event>
 5   0  0.6564887E-05  0.1700940E+04  0.7818609E-02  0.8760828E-01
        1   -1    0    0  501    0  0.00000000000E+00  0.00000000000E+00  0.18523986867E+04  0.18523986867E+04  0.50400001928E-02 0. -1.
       -1   -1    0    0    0  501  0.00000000000E+00  0.00000000000E+00 -0.39046649285E+03  0.39046649288E+03  0.50400001928E-02 0.  1.
    10030    2    1    2    0    0  0.00000000000E+00  0.00000000000E+00  0.14619321938E+04  0.22428651795E+04  0.17009404676E+04 0.  0.
        4    1    3    3  502    0  0.82804004278E+03 -0.19033917653E+03  0.68130023468E+03  0.10890596573E+04  0.12699999809E+01 0.  1.
       -4    1    3    3    0  502 -0.82804004278E+03  0.19033917653E+03  0.78063195913E+03  0.11538055222E+04  0.12699999809E+01 0. -1.
</event>
<event>
 5   0  0.1333546E-04  0.1694438E+04  0.7818609E-02  0.8764543E-01
        2   -1    0    0  501    0  0.00000000000E+00  0.00000000000E+00  0.13965228815E+04  0.13965228815E+04  0.25500000920E-02 0.  1.
       -2   -1    0    0    0  501  0.00000000000E+00  0.00000000000E+00 -0.51397668242E+03  0.51397668242E+03  0.25500000920E-02 0. -1.
    10030    2    1    2    0    0  0.00000000000E+00  0.00000000000E+00  0.88254619904E+03  0.19104995639E+04  0.16944381931E+04 0.  0.
        5    1    3    3  502    0 -0.15335298386E+03 -0.77913068761E+03  0.77421644778E+03  0.11090513803E+04  0.46999998093E+01 0. -1.
       -5    1    3    3    0  502  0.15335298386E+03  0.77913068761E+03  0.10832975126E+03  0.80144818362E+03  0.46999998093E+01 0.  1.
</event>
<event>
 5   0  0.1393870E-04  0.1721743E+04  0.7818609E-02  0.8749060E-01
       -2   -1    0    0    0  501  0.00000000000E+00  0.00000000000E+00  0.69511009909E+03  0.69511009909E+03  0.25500000920E-02 0. -1.
        2   -1    0    0  501    0  0.00000000000E+00  0.00000000000E+00 -0.10661612518E+04  0.10661612518E+04  0.25500000920E-02 0.  1.
    10030    2    1    2    0    0  0.00000000000E+00  0.00000000000E+00 -0.37105115274E+03  0.17612713509E+04  0.17217426677E+04 0.  0.
        3    1    3    3  502    0 -0.28789649736E+02  0.67961551415E+03  0.35421797088E+03  0.76692664063E+03  0.10100000352E+00 0. -1.
       -3    1    3    3    0  502  0.28789649736E+02 -0.67961551415E+03 -0.72526912362E+03  0.99434471029E+03  0.10100000352E+00 0.  1.
</event>
<event>
 5   0  0.4720875E-05  0.1702798E+04  0.7818609E-02  0.8759770E-01
       -4   -1    0    0    0  501  0.00000000000E+00  0.00000000000E+00  0.49378778131E+03  0.49378941450E+03  0.12699999809E+01 0.  1.
        4   -1    0    0  501    0  0.00000000000E+00  0.00000000000E+00 -0.14679960030E+04  0.14679965524E+04  0.12699999809E+01 0. -1.
    10030    2    1    2    0    0  0.00000000000E+00  0.00000000000E+00 -0.97420822172E+03  0.19617859669E+04  0.17027984381E+04 0.  0.
        5    1    3    3  502    0 -0.44075422347E+03 -0.18617333076E+03 -0.12984391099E+04  0.13837958689E+04  0.46999998093E+01 0.  1.
       -5    1    3    3    0  502  0.44075422347E+03  0.18617333076E+03  0.32423088816E+03  0.57799009804E+03  0.46999998093E+01 0. -1.
</event>
<event>
 5   0  0.6601906E-05  0.1681644E+04  0.7818609E-02  0.8771903E-01
       -1   -1    0    0    0  501  0.00000000000E+00  0.00000000000E+00  0.14573942375E+04  0.14573942375E+04  0.50400001928E-02 0. -1.
        1   -1    0    0  501    0  0.00000000000E+00  0.00000000000E+00 -0.48509986064E+03  0.48509986066E+03  0.50400001928E-02 0.  1.
    10030    2    1    2    0    0  0.00000000000E+00  0.00000000000E+00  0.97229437686E+03  0.19424940982E+04  0.16816441259E+04 0.  0.
        1    1    3    3  502    0 -0.28751827576E+03 -0.13655841163E+03 -0.41281720698E+03  0.52128015988E+03  0.50400001928E-02 0.  1.
       -1    1    3    3    0  502  0.28751827576E+03  0.13655841163E+03  0.13851115838E+04  0.14212139383E+04  0.50400001928E-02 0. -1.
</event>
<event>
 5   0  0.6834837E-05  0.1717364E+04  0.7818609E-02  0.8751523E-01
       -1   -1    0    0    0  501  0.00000000000E+00  0.00000000000E+00  0.86784053708E+03  0.86784053710E+03  0.50400001928E-02 0. -1.
        1   -1    0    0  501    0  0.00000000000E+00  0.00000000000E+00 -0.84961979872E+03  0.84961979873E+03  0.50400001928E-02 0.  1.
    10030    2    1    2    0    0  0.00000000000E+00  0.00000000000E+00  0.18220738366E+02  0.17174603358E+04  0.17173636801E+04 0.  0.
        5    1    3    3  502    0  0.94104100951E+01  0.78973180382E+03 -0.32787674671E+03  0.85515503203E+03  0.46999998093E+01 0.  1.
       -5    1    3    3    0  502 -0.94104100951E+01 -0.78973180382E+03  0.34609748508E+03  0.86230530380E+03  0.46999998093E+01 0. -1.
</event>
<event>
 5   0  0.6834837E-05  0.1701235E+04  0.7818609E-02  0.8760661E-01
       -1   -1    0    0    0  501  0.00000000000E+00  0.00000000000E+00  0.99958908300E+03  0.99958908302E+03  0.50400001928E-02 0.  1.
        1   -1    0    0  501    0  0.00000000000E+00  0.00000000000E+00 -0.72384728174E+03  0.72384728176E+03  0.50400001928E-02 0. -1.
    10030    2    1    2    0    0  0.00000000000E+00  0.00000000000E+00  0.27574180126E+03  0.17234363648E+04  0.17012346583E+04 0.  0.
        5    1    3    3  502    0  0.21964010827E+03  0.54197504442E+03  0.76362860374E+03  0.96183650398E+03  0.46999998093E+01 0.  1.
       -5    1    3    3    0  502 -0.21964010827E+03 -0.54197504442E+03 -0.48788680248E+03  0.76159986079E+03  0.46999998093E+01 0. -1.
</event>
<event>
 5   0  0.1255362E-04  0.1683527E+04  0.7818609E-02  0.8770815E-01
        2   -1    0    0  501    0  0.00000000000E+00  0.00000000000E+00  0.12545482126E+04  0.12545482126E+04  0.25500000920E-02 0.  1.
       -2   -1    0    0    0  501  0.00000000000E+00  0.00000000000E+00 -0.56479790835E+03  0.56479790836E+03  0.25500000920E-02 0. -1.
    10030    2    1    2    0    0  0.00000000000E+00  0.00000000000E+00  0.68975030429E+03  0.18193461210E+04  0.16835274948E+04 0.  0.
        1    1    3    3  502    0 -0.23375424180E+03 -0.48263343771E+03 -0.35630735092E+03  0.64384082590E+03  0.50400001928E-02 0. -1.
       -1    1    3    3    0  502  0.23375424180E+03  0.48263343771E+03  0.10460576552E+04  0.11755052951E+04  0.50400001928E-02 0.  1.
</event>
<event>
 5   0  0.1255362E-04  0.1699289E+04  0.7818609E-02  0.8761770E-01
        2   -1    0    0  501    0  0.00000000000E+00  0.00000000000E+00  0.13558702699E+04  0.13558702699E+04  0.25500000920E-02 0. -1.
       -2   -1    0    0    0  501  0.00000000000E+00  0.00000000000E+00 -0.53242272205E+03  0.53242272205E+03  0.25500000920E-02 0.  1.
    10030    2    1    2    0    0  0.00000000000E+00  0.00000000000E+00  0.82344754787E+03  0.18882929920E+04  0.16992894278E+04 0.  0.
        1    1    3    3  502    0  0.12431399761E+03  0.84022706672E+03  0.38787391772E+03  0.93374604135E+03  0.50400001928E-02 0.  1.
       -1    1    3    3    0  502 -0.12431399761E+03 -0.84022706672E+03  0.43557363015E+03  0.95454695063E+03  0.50400001928E-02 0. -1.
</event>
<event>
 5   0  0.6564887E-05  0.1719615E+04  0.7818609E-02  0.8750256E-01
        1   -1    0    0  501    0  0.00000000000E+00  0.00000000000E+00  0.11041522721E+04  0.11041522721E+04  0.50400001928E-02 0. -1.
       -1   -1    0    0    0  501  0.00000000000E+00  0.00000000000E+00 -0.66953546698E+03  0.66953546700E+03  0.50400001928E-02 0.  1.
    10030    2    1    2    0    0  0.00000000000E+00  0.00000000000E+00  0.43461680509E+03  0.17736877391E+04  0.17196151978E+04 0.  0.
        4    1    3    3  502    0  0.78474380164E+02 -0.82143556865E+03 -0.31850843920E+02  0.82579096080E+03  0.12699999809E+01 0. -1.
       -4    1    3    3    0  502 -0.78474380164E+02  0.82143556865E+03  0.46646764901E+03  0.94789677827E+03  0.12699999809E+01 0.  1.
</event>
<event>
 5   0  0.1269175E-04  0.1699007E+04  0.7818609E-02  0.8761931E-01
        2   -1    0    0  501    0  0.00000000000E+00  0.00000000000E+00  0.85664639181E+03  0.85664639181E+03  0.25500000920E-02 0. -1.
       -2   -1    0    0    0  501  0.00000000000E+00  0.00000000000E+00 -0.84242058613E+03  0.84242058614E+03  0.25500000920E-02 0.  1.
    10030    2    1    2    0    0  0.00000000000E+00  0.00000000000E+00  0.14225805671E+02  0.16990669779E+04  0.16990074226E+04 0.  0.
        2    1    3    3  502    0 -0.70902846655E+02 -0.45089844884E+02  0.85248048332E+03  0.85661151184E+03  0.25500000920E-02 0. -1.
       -2    1    3    3    0  502  0.70902846655E+02  0.45089844884E+02 -0.83825467764E+03  0.84245546611E+03  0.25500000920E-02 0.  1.
</event>
<event>
 5   0  0.4720875E-05  0.1710521E+04  0.7818609E-02  0.8755386E-01
       -3   -1    0    0    0  501  0.00000000000E+00  0.00000000000E+00  0.83260159448E+03  0.83260160061E+03  0.10100000352E+00 0. -1.
        3   -1    0    0  501    0  0.00000000000E+00  0.00000000000E+00 -0.87853646299E+03  0.87853646879E+03  0.10100000352E+00 0.  1.
    10030    2    1    2    0    0  0.00000000000E+00  0.00000000000E+00 -0.45934868507E+02  0.17111380694E+04  0.17105214060E+04 0.  0.
        3    1    3    3  502    0 -0.16526536021E+03 -0.17376120425E+03 -0.84421727271E+03  0.87761518283E+03  0.10100000352E+00 0.  1.
       -3    1    3    3    0  502  0.16526536021E+03  0.17376120425E+03  0.79828240420E+03  0.83352288658E+03  0.10100000352E+00 0. -1.
</event>
<event>
 5   0  0.1333546E-04  0.1688775E+04  0.7818609E-02  0.8767792E-01
        2   -1    0    0  501    0  0.00000000000E+00  0.00000000000E+00  0.50820951907E+03  0.50820951908E+03  0.25500000920E-02 0. -1.
       -2   -1    0    0    0  501  0.00000000000E+00  0.00000000000E+00 -0.14029455154E+04  0.14029455154E+04  0.25500000920E-02 0.  1.
    10030    2    1    2    0    0  0.00000000000E+00  0.00000000000E+00 -0.89473599628E+03  0.19111550344E+04  0.16887750184E+04 0.  0.
        5    1    3    3  502    0 -0.77555749743E+03  0.33388323526E+03 -0.44640172104E+03  0.95512514005E+03  0.46999998093E+01 0.  1.
       -5    1    3    3    0  502  0.77555749743E+03 -0.33388323526E+03 -0.44833427524E+03  0.95602989438E+03  0.46999998093E+01 0. -1.
</event>
<event>
 5   0  0.1333546E-04  0.1701476E+04  0.7818609E-02  0.8760523E-01
       -2   -1    0    0    0  501  0.00000000000E+00  0.00000000000E+00  0.10371461394E+04  0.10371461394E+04  0.25500000920E-02 0. -1.
        2   -1    0    0  501    0  0.00000000000E+00  0.00000000000E+00 -0.69783313464E+03  0.69783313464E+03  0.25500000920E-02 0.  1.
    10030    2    1    2    0    0  0.00000000000E+00  0.00000000000E+00  0.33931300472E+03  0.17349792740E+04  0.17014757612E+04 0.  0.
        5    1    3    3  502    0  0.82264535324E+03 -0.92870377099E+02  0.36937686985E+03  0.90654930706E+03  0.46999998093E+01 0. -1.
       -5    1    3    3    0  502 -0.82264535324E+03  0.92870377099E+02 -0.30063865134E+02  0.82842996695E+03  0.46999998093E+01 0.  1.
</event>
<event>
 5   0  0.6601906E-05  0.1704102E+04  0.7818609E-02  0.8759028E-01
        1   -1    0    0  501    0  0.00000000000E+00  0.00000000000E+00  0.19196530777E+04  0.19196530777E+04  0.50400001928E-02 0.  1.
       -1   -1    0    0    0  501  0.00000000000E+00  0.00000000000E+00 -0.37818851450E+03  0.37818851454E+03  0.50400001928E-02 0. -1.
    10030    2    1    2    0    0  0.00000000000E+00  0.00000000000E+00  0.15414645632E+04  0.22978415923E+04  0.17041018114E+04 0.  0.
        1    1    3    3  502    0 -0.74858783123E+03 -0.15073693549E+03  0.26102780636E+03  0.80699496932E+03  0.50400001928E-02 0. -1.
       -1    1    3    3    0  502  0.74858783123E+03  0.15073693549E+03  0.12804367569E+04  0.14908466229E+04  0.50400001928E-02 0.  1.
</event>
<event>
 5   0  0.6564887E-05  0.1699509E+04  0.7818609E-02  0.8761645E-01
       -1   -1    0    0    0  501  0.00000000000E+00  0.00000000000E+00  0.55297722847E+03  0.55297722849E+03  0.50400001928E-02 0.  1.
        1   -1    0    0  501    0  0.00000000000E+00  0.00000000000E+00 -0.13058084574E+04  0.13058084574E+04  0.50400001928E-02 0. -1.
    10030    2    1    2    0    0  0.00000000000E+00  0.00000000000E+00 -0.75283122890E+03  0.18587856859E+04  0.16995085663E+04 0.  0.
        4    1    3    3  502    0  0.18026343985E+03  0.21518613483E+03 -0.12536309969E+04  0.12846759395E+04  0.12699999809E+01 0. -1.
       -4    1    3    3    0  502 -0.18026343985E+03 -0.21518613483E+03  0.50079976796E+03  0.57410974636E+03  0.12699999809E+01 0.  1.
</event>
<event>
 5   0  0.1393870E-04  0.1702861E+04  0.7818609E-02  0.8759734E-01
       -2   -1    0    0    0  501  0.00000000000E+00  0.00000000000E+00  0.11013014952E+04  0.11013014952E+04  0.25500000920E-02 0. -1.
        2   -1    0    0  501    0  0.00000000000E+00  0.00000000000E+00 -0.65825225955E+03  0.65825225955E+03  0.25500000920E-02 0.  1.
    10030    2    1    2    0    0  0.00000000000E+00  0.00000000000E+00  0.44304923562E+03  0.17595537547E+04  0.17028613539E+04 0.  0.
        3    1    3    3  502    0  0.12842596982E+03 -0.35077907332E+02 -0.64743100793E+03  0.66097701135E+03  0.10100000352E+00 0.  1.
       -3    1    3    3    0  502 -0.12842596982E+03  0.35077907332E+02  0.10904802435E+04  0.10985767434E+04  0.10100000352E+00 0. -1.
</event>
<event>
 5   0  0.1255362E-04  0.1700205E+04  0.7818609E-02  0.8761247E-01
        2   -1    0    0  501    0  0.00000000000E+00  0.00000000000E+00  0.19988627391E+04  0.19988627391E+04  0.25500000920E-02 0. -1.
       -2   -1    0    0    0  501  0.00000000000E+00  0.00000000000E+00 -0.36154281637E+03  0.36154281638E+03  0.25500000920E-02 0.  1.
    10030    2    1    2    0    0  0.00000000000E+00  0.00000000000E+00  0.16373199228E+04  0.23604055555E+04  0.17002052397E+04 0.  0.
        1    1    3    3  502    0 -0.43600372199E+03 -0.56931383139E+03  0.18479973886E+03  0.74051902589E+03  0.50400001928E-02 0.  1.
       -1    1    3    3    0  502  0.43600372199E+03  0.56931383139E+03  0.14525201839E+04  0.16198865296E+04  0.50400001928E-02 0. -1.
</event>
<event>
 5   0  0.1333546E-04  0.1699083E+04  0.7818609E-02  0.8761888E-01
        2   -1    0    0  501    0  0.00000000000E+00  0.00000000000E+00  0.17813844753E+04  0.17813844754E+04  0.25500000920E-02 0. -1.
       -2   -1    0    0    0  501  0.00000000000E+00  0.00000000000E+00 -0.40514586715E+03  0.40514586716E+03  0.25500000920E-02 0.  1.
    10030    2    1    2    0    0  0.00000000000E+00  0.00000000000E+00  0.13762386082E+04  0.21865303425E+04  0.16990827620E+04 0.  0.
        5    1    3    3  502    0 -0.58197532904E+03  0.47927490674E+03  0.11919797641E+04  0.14104033352E+04  0.46999998093E+01 0. -1.
       -5    1    3    3    0  502  0.58197532904E+03 -0.47927490674E+03  0.18425884405E+03  0.77612700730E+03  0.46999998093E+01 0.  1.
</event>
<event>
 5   0  0.4720875E-05  0.1690549E+04  0.7818609E-02  0.8766773E-01
        4   -1    0    0  501    0  0.00000000000E+00  0.00000000000E+00  0.51784580124E+03  0.51784735856E+03  0.12699999809E+01 0. -1.
       -4   -1    0    0    0  501  0.00000000000E+00  0.00000000000E+00 -0.13797285469E+04  0.13797291314E+04  0.12699999809E+01 0.  1.
    10030    2    1    2    0    0  0.00000000000E+00  0.00000000000E+00 -0.86188274568E+03  0.18975764900E+04  0.16905486293E+04 0.  0.
        5    1    3    3  502    0 -0.62111050389E+03 -0.33381942849E+03  0.92242589159E+02  0.71115712337E+03  0.46999998093E+01 0.  1.
       -5    1    3    3    0  502  0.62111050389E+03  0.33381942849E+03 -0.95412533484E+03  0.11864193666E+04  0.46999998093E+01 0. -1.
</event>
<event>
 5   0  0.1393870E-04  0.1711839E+04  0.7818609E-02  0.8754641E-01
       -2   -1    0    0    0  501  0.00000000000E+00  0.00000000000E+00  0.10781509162E+04  0.10781509162E+04  0.25500000920E-02 0.  1.
        2   -1    0    0  501    0  0.00000000000E+00  0.00000000000E+00 -0.67949489017E+03  0.67949489017E+03  0.25500000920E-02 0. -1.
    10030    2    1    2    0    0  0.00000000000E+00  0.00000000000E+00  0.39865602606E+03  0.17576458064E+04  0.17118388223E+04 0.  0.
        3    1    3    3  502    0  0.30028864687E+03 -0.65641022861E+03 -0.27292570311E+03  0.77170986081E+03  0.10100000352E+00 0. -1.
       -3    1    3    3    0  502 -0.30028864687E+03  0.65641022861E+03  0.67158172917E+03  0.98593594559E+03  0.10100000352E+00 0.  1.
</event>
<event>
 5   0  0.1285639E-04  0.1705099E+04  0.7818609E-02  0.8758462E-01
        2   -1    0    0  501    0  0.00000000000E+00  0.00000000000E+00  0.19796763843E+04  0.19796763843E+04  0.25500000920E-02 0. -1.
       -2   -1    0    0    0  501  0.00000000000E+00  0.00000000000E+00 -0.36715111450E+03  0.36715111451E+03  0.25500000920E-02 0.  1.
    10030    2    1    2    0    0  0.00000000000E+00  0.00000000000E+00  0.16125252698E+04  0.23468274988E+04  0.17050986961E+04 0.  0.
        4    1    3    3  502    0 -0.60487948490E+03  0.31680603038E+03  0.10365404178E+03  0.69064536878E+03  0.12699999809E+01 0.  1.
       -4    1    3    3    0  502  0.60487948490E+03 -0.31680603038E+03  0.15088712280E+04  0.16561821300E+04  0.12699999809E+01 0. -1.
</event>
<event>
 5   0  0.4720875E-05  0.1696520E+04  0.7818609E-02  0.8763351E-01
        3   -1    0    0  501    0  0.00000000000E+00  0.00000000000E+00  0.62696379036E+03  0.62696379850E+03  0.10100000352E+00 0.  1.
       -3   -1    0    0    0  501  0.00000000000E+00  0.00000000000E+00 -0.11476663548E+04  0.11476663592E+04  0.10100000352E+00 0. -1.
    10030    2    1    2    0    0  0.00000000000E+00  0.00000000000E+00 -0.52070256440E+03  0.17746301577E+04  0.16965202728E+04 0.  0.
        4    1    3    3  502    0  0.29940466518E+03 -0.32161114162E+03 -0.10193381897E+04  0.11100129900E+04  0.12699999809E+01 0. -1.
       -4    1    3    3    0  502 -0.29940466518E+03  0.32161114162E+03  0.49863562531E+03  0.66461716776E+03  0.12699999809E+01 0.  1.
</event>
<event>
 5   0  0.1393870E-04  0.1699361E+04  0.7818609E-02  0.8761729E-01
       -2   -1    0    0    0  501  0.00000000000E+00  0.00000000000E+00  0.56601784167E+03  0.56601784167E+03  0.25500000920E-02 0. -1.
        2   -1    0    0  501    0  0.00000000000E+00  0.00000000000E+00 -0.12755027481E+04  0.12755027481E+04  0.25500000920E-02 0.  1.
    10030    2    1    2    0    0  0.00000000000E+00  0.00000000000E+00 -0.70948490640E+03  0.18415205897E+04  0.16993614242E+04 0.  0.
        3    1    3    3  502    0 -0.18671861488E+01  0.78646141612E+03 -0.70325532604E+03  0.10550322788E+04  0.10100000352E+00 0.  1.
       -3    1    3    3    0  502  0.18671861488E+01 -0.78646141612E+03 -0.62295803591E+01  0.78648831098E+03  0.10100000352E+00 0. -1.
</event>
<event>
 5   0  0.1285639E-04  0.1719558E+04  0.7818609E-02  0.8750288E-01
       -2   -1    0    0    0  501  0.00000000000E+00  0.00000000000E+00  0.57537239815E+03  0.57537239816E+03  0.25500000920E-02 0. -1.
        2   -1    0    0  501    0  0.00000000000E+00  0.00000000000E+00 -0.12847677897E+04  0.12847677897E+04  0.25500000920E-02 0.  1.
    10030    2    1    2    0    0  0.00000000000E+00  0.00000000000E+00 -0.70939539151E+03  0.18601401878E+04  0.17195579946E+04 0.  0.
        4    1    3    3  502    0  0.66187449866E+03 -0.52310190285E+03 -0.53410228827E+03  0.99848901845E+03  0.12699999809E+01 0. -1.
       -4    1    3    3    0  502 -0.66187449866E+03  0.52310190285E+03 -0.17529310325E+03  0.86165116938E+03  0.12699999809E+01 0.  1.
</event>
<event>
 5   0  0.1255362E-04  0.1698160E+04  0.7818609E-02  0.8762414E-01
       -2   -1    0    0    0  501  0.00000000000E+00  0.00000000000E+00  0.37018167831E+03  0.37018167832E+03  0.25500000920E-02 0.  1.
        2   -1    0    0  501    0  0.00000000000E+00  0.00000000000E+00 -0.19475224139E+04  0.19475224139E+04  0.25500000920E-02 0. -1.
    10030    2    1    2    0    0  0.00000000000E+00  0.00000000000E+00 -0.15773407355E+04  0.23177040922E+04  0.16981603172E+04 0.  0.
        1    1    3    3  502    0 -0.20460706140E+03 -0.82221314551E+03 -0.86390481647E+03  0.12100537336E+04  0.50400001928E-02 0. -1.
       -1    1    3    3    0  502  0.20460706140E+03  0.82221314551E+03 -0.71343591906E+03  0.11076503586E+04  0.50400001928E-02 0.  1.
</event>
<event>
 5   0  0.6564887E-05  0.1696926E+04  0.7818609E-02  0.8763119E-01
        1   -1    0    0  501    0  0.00000000000E+00  0.00000000000E+00  0.77347289914E+03  0.77347289916E+03  0.50400001928E-02 0.  1.
       -1   -1    0    0    0  501  0.00000000000E+00  0.00000000000E+00 -0.93072384585E+03  0.93072384586E+03  0.50400001928E-02 0. -1.
    10030    2    1    2    0    0  0.00000000000E+00  0.00000000000E+00 -0.15725094671E+03  0.17041967450E+04  0.16969262463E+04 0.  0.
        4    1    3    3  502    0 -0.65019109959E+03  0.50562841672E+03 -0.28316323719E+03  0.87097163764E+03  0.12699999809E+01 0.  1.
       -4    1    3    3    0  502  0.65019109959E+03 -0.50562841672E+03  0.12591229048E+03  0.83322510738E+03  0.12699999809E+01 0. -1.
</event>
<event>
 5   0  0.1393870E-04  0.1698106E+04  0.7818609E-02  0.8762445E-01
        2   -1    0    0  501    0  0.00000000000E+00  0.00000000000E+00  0.19940015952E+04  0.19940015952E+04  0.25500000920E-02 0.  1.
       -2   -1    0    0    0  501  0.00000000000E+00  0.00000000000E+00 -0.36152979544E+03  0.36152979544E+03  0.25500000920E-02 0. -1.
    10030    2    1    2    0    0  0.00000000000E+00  0.00000000000E+00  0.16324717997E+04  0.23555313906E+04  0.16981059906E+04 0.  0.
        3    1    3    3  502    0  0.83842365703E+03  0.55581569134E+02  0.64721131475E+03  0.10606253041E+04  0.10100000352E+00 0. -1.
       -3    1    3    3    0  502 -0.83842365703E+03 -0.55581569134E+02  0.98526048498E+03  0.12949060865E+04  0.10100000352E+00 0.  1.
</event>
<event>
 5   0  0.1333546E-04  0.1700959E+04  0.7818609E-02  0.8760818E-01
       -2   -1    0    0    0  501  0.00000000000E+00  0.00000000000E+00  0.71981771378E+03  0.71981771378E+03  0.25500000920E-02 0. -1.
        2   -1    0    0  501    0  0.00000000000E+00  0.00000000000E+00 -0.10048586480E+04  0.10048586480E+04  0.25500000920E-02 0.  1.
    10030    2    1    2    0    0  0.00000000000E+00  0.00000000000E+00 -0.28504093422E+03  0.17246763618E+04  0.17009586176E+04 0.  0.
        5    1    3    3  502    0 -0.48854181091E+03 -0.33662056548E+02  0.56250717112E+03  0.74581676209E+03  0.46999998093E+01 0. -1.
       -5    1    3    3    0  502  0.48854181091E+03  0.33662056548E+02 -0.84754810534E+03  0.97885959970E+03  0.46999998093E+01 0.  1.
</event>
<event>
 5   0  0.6615842E-05  0.1685933E+04  0.7818609E-02  0.8769428E-01
        1   -1    0    0  501    0  0.00000000000E+00  0.00000000000E+00  0.82362558682E+03  0.82362558684E+03  0.50400001928E-02 0.  1.
       -1   -1    0    0    0  501  0.00000000000E+00  0.00000000000E+00 -0.86276140106E+03  0.86276140107E+03  0.50400001928E-02 0. -1.
    10030    2    1    2    0    0  0.00000000000E+00  0.00000000000E+00 -0.39135814235E+02  0.16863869879E+04  0.16859328163E+04 0.  0.
        3    1    3    3  502    0 -0.70731550233E+03 -0.35887043063E+03 -0.30514288936E+03  0.84982080402E+03  0.10100000352E+00 0. -1.
       -3    1    3    3    0  502  0.70731550233E+03  0.35887043063E+03  0.26600707513E+03  0.83656618389E+03  0.10100000352E+00 0.  1.
</event>
<event>
 5   0  0.6564887E-05  0.1704663E+04  0.7818609E-02  0.8758709E-01
       -1   -1    0    0    0  501  0.00000000000E+00  0.00000000000E+00  0.10887164622E+04  0.10887164622E+04  0.50400001928E-02 0.  1.
        1   -1    0    0  501    0  0.00000000000E+00  0.00000000000E+00 -0.66727128687E+03  0.66727128689E+03  0.50400001928E-02 0. -1.
    10030    2    1    2    0    0  0.00000000000E+00  0.00000000000E+00  0.42144517531E+03  0.17559877491E+04  0.17046632920E+04 0.  0.
        4    1    3    3  502    0  0.82999106672E+03  0.16263035340E+03  0.10202874198E+03  0.85190684923E+03  0.12699999809E+01 0. -1.
       -4    1    3    3    0  502 -0.82999106672E+03 -0.16263035340E+03  0.31941643332E+03  0.90408089984E+03  0.12699999809E+01 0.  1.
</event>
<event>
 5   0  0.1285639E-04  0.1700604E+04  0.7818609E-02  0.8761020E-01
       -2   -1    0    0    0  501  0.00000000000E+00  0.00000000000E+00  0.10648003930E+04  0.10648003930E+04  0.25500000920E-02 0. -1.
        2   -1    0    0  501    0  0.00000000000E+00  0.00000000000E+00 -0.67901285101E+03  0.67901285101E+03  0.25500000920E-02 0.  1.
    10030    2    1    2    0    0  0.00000000000E+00  0.00000000000E+00  0.38578754201E+03  0.17438132440E+04  0.17006035995E+04 0.  0.
        4    1    3    3  502    0 -0.19725682434E+03  0.32830374569E+03  0.97133879119E+03  0.10441236825E+04  0.12699999809E+01 0. -1.
       -4    1    3    3    0  502  0.19725682434E+03 -0.32830374569E+03 -0.58555124919E+03  0.69968956152E+03  0.12699999809E+01 0.  1.
</event>
<event>
 5   0  0.6615842E-05  0.1702527E+04  0.7818609E-02  0.8759925E-01
       -1   -1    0    0    0  501  0.00000000000E+00  0.00000000000E+00  0.76749480199E+03  0.76749480201E+03  0.50400001928E-02 0.  1.
        1   -1    0    0  501    0  0.00000000000E+00  0.00000000000E+00 -0.94417493749E+03  0.94417493751E+03  0.50400001928E-02 0. -1.
    10030    2    1    2    0    0  0.00000000000E+00  0.00000000000E+00 -0.17668013550E+03  0.17116697395E+04  0.17025267771E+04 0.  0.
        3    1    3    3  502    0  0.38245145327E+03 -0.42934661505E+03  0.54275839580E+03  0.79069230196E+03  0.10100000352E+00 0.  1.
       -3    1    3    3    0  502 -0.38245145327E+03  0.42934661505E+03 -0.71943853130E+03  0.92097743756E+03  0.10100000352E+00 0. -1.
</event>
<event>
 5   0  0.1333546E-04  0.1704595E+04  0.7818609E-02  0.8758748E-01
       -2   -1    0    0    0  501  0.00000000000E+00  0.00000000000E+00  0.43965395615E+03  0.43965395616E+03  0.25500000920E-02 0.  1.
        2   -1    0    0  501    0  0.00000000000E+00  0.00000000000E+00 -0.16522333537E+04  0.16522333537E+04  0.25500000920E-02 0. -1.
    10030    2    1    2    0    0  0.00000000000E+00  0.00000000000E+00 -0.12125793975E+04  0.20918873098E+04  0.17045948849E+04 0.  0.
        5    1    3    3  502    0  0.38198848483E+03 -0.58884203647E+03 -0.11996007134E+04  0.13898611831E+04  0.46999998093E+01 0. -1.
       -5    1    3    3    0  502 -0.38198848483E+03  0.58884203647E+03 -0.12978684085E+02  0.70202612679E+03  0.46999998093E+01 0.  1.
</event>
<event>
 5   0  0.1269175E-04  0.1693716E+04  0.7818609E-02  0.8764957E-01
        2   -1    0    0  501    0  0.00000000000E+00  0.00000000000E+00  0.10933589596E+04  0.10933589596E+04  0.25500000920E-02 0. -1.
       -2   -1    0    0    0  501  0.00000000000E+00  0.00000000000E+00 -0.65593117987E+03  0.65593117987E+03  0.25500000920E-02 0.  1.
    10030    2    1    2    0    0  0.00000000000E+00  0.00000000000E+00  0.43742777970E+03  0.17492901394E+04  0.16937157168E+04 0.  0.
        2    1    3    3  502    0 -0.25633336332E+03  0.62066382677E+03  0.75162678841E+03  0.10079053567E+04  0.25500000920E-02 0. -1.
       -2    1    3    3    0  502  0.25633336332E+03 -0.62066382677E+03 -0.31419900870E+03  0.74138478274E+03  0.25500000920E-02 0.  1.
</event>
<event>
 5   0  0.1333546E-04  0.1701569E+04  0.7818609E-02  0.8760470E-01
       -2   -1    0    0    0  501  0.00000000000E+00  0.00000000000E+00  0.52016381428E+03  0.52016381429E+03  0.25500000920E-02 0. -1.
        2   -1    0    0  501    0  0.00000000000E+00  0.00000000000E+00 -0.13915506483E+04  0.13915506483E+04  0.25500000920E-02 0.  1.
    10030    2    1    2    0    0  0.00000000000E+00  0.00000000000E+00 -0.87138683401E+03  0.19117144626E+04  0.17015690324E+04 0.  0.
        5    1    3    3  502    0 -0.38375444118E+03 -0.20591843347E+03 -0.12568045701E+04  0.13301314559E+04  0.46999998093E+01 0.  1.
       -5    1    3    3    0  502  0.38375444118E+03  0.20591843347E+03  0.38541773613E+03  0.58158300671E+03  0.46999998093E+01 0. -1.
</event>
<event>
 5   0  0.6834837E-05  0.1699242E+04  0.7818609E-02  0.8761797E-01
        1   -1    0    0  501    0  0.00000000000E+00  0.00000000000E+00  0.11709807827E+04  0.11709807827E+04  0.50400001928E-02 0.  1.
       -1   -1    0    0    0  501  0.00000000000E+00  0.00000000000E+00 -0.61645400349E+03  0.61645400351E+03  0.50400001928E-02 0. -1.
    10030    2    1    2    0    0  0.00000000000E+00  0.00000000000E+00  0.55452677919E+03  0.17874347862E+04  0.16992419387E+04 0.  0.
        5    1    3    3  502    0 -0.37196371075E+03 -0.34574397388E+03  0.99374470404E+03  0.11159957547E+04  0.46999998093E+01 0.  1.
       -5    1    3    3    0  502  0.37196371075E+03  0.34574397388E+03 -0.43921792486E+03  0.67143903156E+03  0.46999998093E+01 0. -1.
</event>
<event>
 5   0  0.6564887E-05  0.1717969E+04  0.7818609E-02  0.8751182E-01
        1   -1    0    0  501    0  0.00000000000E+00  0.00000000000E+00  0.98762103301E+03  0.98762103302E+03  0.50400001928E-02 0.  1.
       -1   -1    0    0    0  501  0.00000000000E+00  0.00000000000E+00 -0.74710315712E+03  0.74710315713E+03  0.50400001928E-02 0. -1.
    10030    2    1    2    0    0  0.00000000000E+00  0.00000000000E+00  0.24051787589E+03  0.17347241902E+04  0.17179694896E+04 0.  0.
        4    1    3    3  502    0 -0.64675631127E+03 -0.44748452710E+03  0.46905071928E+03  0.91572174721E+03  0.12699999809E+01 0.  1.
       -4    1    3    3    0  502  0.64675631127E+03  0.44748452710E+03 -0.22853284338E+03  0.81900244295E+03  0.12699999809E+01 0. -1.
</event>
<event>
 5   0  0.1393870E-04  0.1699742E+04  0.7818609E-02  0.8761511E-01
       -2   -1    0    0    0  501  0.00000000000E+00  0.00000000000E+00  0.12435621878E+04  0.12435621878E+04  0.25500000920E-02 0.  1.
        2   -1    0    0  501    0  0.00000000000E+00  0.00000000000E+00 -0.58081596134E+03  0.58081596134E+03  0.25500000920E-02 0. -1.
    10030    2    1    2    0    0  0.00000000000E+00  0.00000000000E+00  0.66274622643E+03  0.18243781491E+04  0.16997420599E+04 0.  0.
        3    1    3    3  502    0 -0.62079070870E+03 -0.10668459546E+03 -0.28100460300E+03  0.68972915266E+03  0.10100000352E+00 0. -1.
       -3    1    3    3    0  502  0.62079070870E+03  0.10668459546E+03  0.94375082943E+03  0.11346489965E+04  0.10100000352E+00 0.  1.
</event>
<event>
 5   0  0.6539134E-05  0.1700076E+04  0.7818609E-02  0.8761321E-01
        1   -1    0    0  501    0  0.00000000000E+00  0.00000000000E+00  0.11605925404E+04  0.11605925405E+04  0.50400001928E-02 0. -1.
       -1   -1    0    0    0  501  0.00000000000E+00  0.00000000000E+00 -0.62258239777E+03  0.62258239779E+03  0.50400001928E-02 0.  1.
    10030    2    1    2    0    0  0.00000000000E+00  0.00000000000E+00  0.53801014268E+03  0.17831749383E+04  0.17000758650E+04 0.  0.
        2    1    3    3  502    0  0.52208658240E+03 -0.50090367508E+03 -0.19899462247E+03  0.75038506849E+03  0.25500000920E-02 0.  1.
       -2    1    3    3    0  502 -0.52208658240E+03  0.50090367508E+03  0.73700476515E+03  0.10327898698E+04  0.25500000920E-02 0. -1.
</event>
<event>
 5   0  0.1285639E-04  0.1706455E+04  0.7818609E-02  0.8757691E-01
        2   -1    0    0  501    0  0.00000000000E+00  0.00000000000E+00  0.65014956911E+03  0.65014956912E+03  0.25500000920E-02 0. -1.
       -2   -1    0    0    0  501  0.00000000000E+00  0.00000000000E+00 -0.11197385309E+04  0.11197385310E+04  0.25500000920E-02 0.  1.
    10030    2    1    2    0    0  0.00000000000E+00  0.00000000000E+00 -0.46958896183E+03  0.17698881001E+04  0.17064554180E+04 0.  0.
        4    1    3    3  502    0 -0.54542171825E+03  0.44361743485E+03  0.26661646837E+03  0.75190905922E+03  0.12699999809E+01 0. -1.
       -4    1    3    3    0  502  0.54542171825E+03 -0.44361743485E+03 -0.73620543020E+03  0.10179790408E+04  0.12699999809E+01 0.  1.
</event>
<event>
 5   0  0.6564887E-05  0.1696896E+04  0.7818609E-02  0.8763136E-01
        1   -1    0    0  501    0  0.00000000000E+00  0.00000000000E+00  0.69815982724E+03  0.69815982725E+03  0.50400001928E-02 0.  1.
       -1   -1    0    0    0  501  0.00000000000E+00  0.00000000000E+00 -0.10310881101E+04  0.10310881101E+04  0.50400001928E-02 0. -1.
    10030    2    1    2    0    0  0.00000000000E+00  0.00000000000E+00 -0.33292828286E+03  0.17292479374E+04  0.16968963396E+04 0.  0.
        4    1    3    3  502    0  0.62738334333E+03  0.53018329733E+03 -0.38302087228E+03  0.90631715737E+03  0.12699999809E+01 0. -1.
       -4    1    3    3    0  502 -0.62738334333E+03 -0.53018329733E+03  0.50092589416E+02  0.82293077999E+03  0.12699999809E+01 0.  1.
</event>
<event>
 5   0  0.6601906E-05  0.1699944E+04  0.7818609E-02  0.8761396E-01
        1   -1    0    0  501    0  0.00000000000E+00  0.00000000000E+00  0.11558191071E+04  0.11558191072E+04  0.50400001928E-02 0. -1.
       -1   -1    0    0    0  501  0.00000000000E+00  0.00000000000E+00 -0.62505677386E+03  0.62505677388E+03  0.50400001928E-02 0.  1.
    10030    2    1    2    0    0  0.00000000000E+00  0.00000000000E+00  0.53076233328E+03  0.17808758810E+04  0.16999441900E+04 0.  0.
        1    1    3    3  502    0 -0.54334156877E+03  0.64480756604E+03  0.15325424639E+03  0.85702025743E+03  0.50400001928E-02 0.  1.
       -1    1    3    3    0  502  0.54334156877E+03 -0.64480756604E+03  0.37750808689E+03  0.92385562361E+03  0.50400001928E-02 0. -1.
</event>
<event>
 5   0  0.6834837E-05  0.1699161E+04  0.7818609E-02  0.8761843E-01
       -1   -1    0    0    0  501  0.00000000000E+00  0.00000000000E+00  0.52038159211E+03  0.52038159214E+03  0.50400001928E-02 0. -1.
        1   -1    0    0  501    0  0.00000000000E+00  0.00000000000E+00 -0.13870340727E+04  0.13870340727E+04  0.50400001928E-02 0.  1.
    10030    2    1    2    0    0  0.00000000000E+00  0.00000000000E+00 -0.86665248060E+03  0.19074156649E+04  0.16991609684E+04 0.  0.
        5    1    3    3  502    0 -0.76343830542E+03  0.36456769547E+03 -0.52040458216E+03  0.99327270671E+03  0.46999998093E+01 0.  1.
       -5    1    3    3    0  502  0.76343830542E+03 -0.36456769547E+03 -0.34624789844E+03  0.91414295815E+03  0.46999998093E+01 0. -1.
</event>
<event>
 5   0  0.6615842E-05  0.1702947E+04  0.7818609E-02  0.8759685E-01
       -1   -1    0    0    0  501  0.00000000000E+00  0.00000000000E+00  0.96775193548E+03  0.96775193549E+03  0.50400001928E-02 0. -1.
        1   -1    0    0  501    0  0.00000000000E+00  0.00000000000E+00 -0.74916643704E+03  0.74916643706E+03  0.50400001928E-02 0.  1.
    10030    2    1    2    0    0  0.00000000000E+00  0.00000000000E+00  0.21858549844E+03  0.17169183726E+04  0.17029471741E+04 0.  0.
        3    1    3    3  502    0 -0.20010046816E+03  0.76901315366E+03 -0.19913505585E+03  0.81919241240E+03  0.10100000352E+00 0.  1.
       -3    1    3    3    0  502  0.20010046816E+03 -0.76901315366E+03  0.41772055428E+03  0.89772596015E+03  0.10100000352E+00 0. -1.
</event>
<event>
 5   0  0.1269175E-04  0.1678084E+04  0.7818609E-02  0.8773964E-01
       -2   -1    0    0    0  501  0.00000000000E+00  0.00000000000E+00  0.33587942260E+03  0.33587942261E+03  0.25500000920E-02 0.  1.
        2   -1    0    0  501    0  0.00000000000E+00  0.00000000000E+00 -0.20959648046E+04  0.20959648046E+04  0.25500000920E-02 0. -1.
    10030    2    1    2    0    0  0.00000000000E+00  0.00000000000E+00 -0.17600853820E+04  0.24318442272E+04  0.16780839650E+04 0.  0.
        2    1    3    3  502    0 -0.18050541198E+03 -0.24838498013E+03 -0.20116225290E+04  0.20349207605E+04  0.25500000920E-02 0. -1.
       -2    1    3    3    0  502  0.18050541198E+03  0.24838498013E+03  0.25153714702E+03  0.39692346674E+03  0.25500000920E-02 0.  1.
</event>
<event>
 5   0  0.6564887E-05  0.1690440E+04  0.7818609E-02  0.8766836E-01
       -1   -1    0    0    0  501  0.00000000000E+00  0.00000000000E+00  0.16336336070E+04  0.16336336070E+04  0.50400001928E-02 0. -1.
        1   -1    0    0  501    0  0.00000000000E+00  0.00000000000E+00 -0.43730534454E+03  0.43730534457E+03  0.50400001928E-02 0.  1.
    10030    2    1    2    0    0  0.00000000000E+00  0.00000000000E+00  0.11963282625E+04  0.20709389516E+04  0.16904398332E+04 0.  0.
        4    1    3    3  502    0  0.47231819475E+03  0.67932617162E+03  0.80974151140E+03  0.11576922962E+04  0.12699999809E+01 0. -1.
       -4    1    3    3    0  502 -0.47231819475E+03 -0.67932617162E+03  0.38658675108E+03  0.91324665537E+03  0.12699999809E+01 0.  1.
</event>
<event>
 5   0  0.1333546E-04  0.1699000E+04  0.7818609E-02  0.8761935E-01
       -2   -1    0    0    0  501  0.00000000000E+00  0.00000000000E+00  0.30757231796E+03  0.30757231797E+03  0.25500000920E-02 0.  1.
        2   -1    0    0  501    0  0.00000000000E+00  0.00000000000E+00 -0.23462777986E+04  0.23462777986E+04  0.25500000920E-02 0. -1.
    10030    2    1    2    0    0  0.00000000000E+00  0.00000000000E+00 -0.20387054807E+04  0.26538501166E+04  0.16989998247E+04 0.  0.
        5    1    3    3  502    0 -0.22414282571E+03  0.51303923381E+03 -0.20173015226E+04  0.20935560142E+04  0.46999998093E+01 0. -1.
       -5    1    3    3    0  502  0.22414282571E+03 -0.51303923381E+03 -0.21403958108E+02  0.56029410239E+03  0.46999998093E+01 0.  1.
</event>
<event>
 5   0  0.1285639E-04  0.1704343E+04  0.7818609E-02  0.8758891E-01
       -2   -1    0    0    0  501  0.00000000000E+00  0.00000000000E+00  0.71495709526E+03  0.71495709526E+03  0.25500000920E-02 0.  1.
        2   -1    0    0  501    0  0.00000000000E+00  0.00000000000E+00 -0.10157198500E+04  0.10157198500E+04  0.25500000920E-02 0. -1.
    10030    2    1    2    0    0  0.00000000000E+00  0.00000000000E+00 -0.30076275471E+03  0.17306769452E+04  0.17043428218E+04 0.  0.
        4    1    3    3  502    0  0.80588233751E+03 -0.11090119394E+03 -0.40817218482E+03  0.91013821043E+03  0.12699999809E+01 0. -1.
       -4    1    3    3    0  502 -0.80588233751E+03  0.11090119394E+03  0.10740943011E+03  0.82053873480E+03  0.12699999809E+01 0.  1.
</event>
<event>
 5   0  0.6601906E-05  0.1813716E+04  0.7818609E-02  0.8699039E-01
       -1   -1    0    0    0  501  0.00000000000E+00  0.00000000000E+00  0.92878157323E+03  0.92878157325E+03  0.50400001928E-02 0. -1.
        1   -1    0    0  501    0  0.00000000000E+00  0.00000000000E+00 -0.88545162268E+03  0.88545162269E+03  0.50400001928E-02 0.  1.
    10030    2    1    2    0    0  0.00000000000E+00  0.00000000000E+00  0.43329950557E+02  0.18142331959E+04  0.18137156901E+04 0.  0.
        1    1    3    3  502    0  0.24163688392E+03  0.66761391227E+03  0.58600183817E+03  0.92059484785E+03  0.50400001928E-02 0. -1.
       -1    1    3    3    0  502 -0.24163688392E+03 -0.66761391227E+03 -0.54267188762E+03  0.89363834808E+03  0.50400001928E-02 0.  1.
</event>
<event>
 5   0  0.1333546E-04  0.1696420E+04  0.7818609E-02  0.8763409E-01
       -2   -1    0    0    0  501  0.00000000000E+00  0.00000000000E+00  0.74283510638E+03  0.74283510638E+03  0.25500000920E-02 0.  1.
        2   -1    0    0  501    0  0.00000000000E+00  0.00000000000E+00 -0.96853254968E+03  0.96853254968E+03  0.25500000920E-02 0. -1.
    10030    2    1    2    0    0  0.00000000000E+00  0.00000000000E+00 -0.22569744330E+03  0.17113676561E+04  0.16964197353E+04 0.  0.
        5    1    3    3  502    0 -0.35646623857E+03  0.42910335400E+03 -0.75741531475E+03  0.94069012787E+03  0.46999998093E+01 0. -1.
       -5    1    3    3    0  502  0.35646623857E+03 -0.42910335400E+03  0.53171787144E+03  0.77067752820E+03  0.46999998093E+01 0.  1.
</event>
<event>
 5   0  0.1255362E-04  0.1667570E+04  0.7818609E-02  0.8780079E-01
        2   -1    0    0  501    0  0.00000000000E+00  0.00000000000E+00  0.86539960651E+03  0.86539960651E+03  0.25500000920E-02 0.  1.
       -2   -1    0    0    0  501  0.00000000000E+00  0.00000000000E+00 -0.80332550209E+03  0.80332550210E+03  0.25500000920E-02 0. -1.
    10030    2    1    2    0    0  0.00000000000E+00  0.00000000000E+00  0.62074104419E+02  0.16687251086E+04  0.16675701765E+04 0.  0.
        1    1    3    3  502    0  0.45057336055E+02 -0.21909328787E+03 -0.77274122128E+03  0.80446319208E+03  0.50400001928E-02 0. -1.
       -1    1    3    3    0  502 -0.45057336055E+02  0.21909328787E+03  0.83481532570E+03  0.86426191653E+03  0.50400001928E-02 0.  1.
</event>
<event>
 5   0  0.1393870E-04  0.1701502E+04  0.7818609E-02  0.8760508E-01
       -2   -1    0    0    0  501  0.00000000000E+00  0.00000000000E+00  0.51066769366E+03  0.51066769366E+03  0.25500000920E-02 0. -1.
        2   -1    0    0  501    0  0.00000000000E+00  0.00000000000E+00 -0.14173148416E+04  0.14173148416E+04  0.25500000920E-02 0.  1.
    10030    2    1    2    0    0  0.00000000000E+00  0.00000000000E+00 -0.90664714795E+03  0.19279825353E+04  0.17015015737E+04 0.  0.
        3    1    3    3  502    0 -0.21415202166E+03  0.66638076706E+03  0.94627429641E+02  0.70631351094E+03  0.10100000352E+00 0. -1.
       -3    1    3    3    0  502  0.21415202166E+03 -0.66638076706E+03 -0.10012745776E+04  0.12216690243E+04  0.10100000352E+00 0.  1.
</event>
<event>
 5   0  0.6601906E-05  0.1702911E+04  0.7818609E-02  0.8759706E-01
        1   -1    0    0  501    0  0.00000000000E+00  0.00000000000E+00  0.86613300144E+03  0.86613300146E+03  0.50400001928E-02 0.  1.
       -1   -1    0    0    0  501  0.00000000000E+00  0.00000000000E+00 -0.83702646421E+03  0.83702646423E+03  0.50400001928E-02 0. -1.
    10030    2    1    2    0    0  0.00000000000E+00  0.00000000000E+00  0.29106537231E+02  0.17031594657E+04  0.17029107361E+04 0.  0.
        1    1    3    3  502    0 -0.64302021011E+03  0.55688947593E+03  0.51644595475E+02  0.85221361364E+03  0.50400001928E-02 0. -1.
       -1    1    3    3    0  502  0.64302021011E+03 -0.55688947593E+03 -0.22538058244E+02  0.85094585204E+03  0.50400001928E-02 0.  1.
</event>
<event>
 5   0  0.6539134E-05  0.1711239E+04  0.7818609E-02  0.8754980E-01
       -1   -1    0    0    0  501  0.00000000000E+00  0.00000000000E+00  0.94199047980E+03  0.94199047981E+03  0.50400001928E-02 0.  1.
        1   -1    0    0  501    0  0.00000000000E+00  0.00000000000E+00 -0.77716807711E+03  0.77716807712E+03  0.50400001928E-02 0. -1.
    10030    2    1    2    0    0  0.00000000000E+00  0.00000000000E+00  0.16482240269E+03  0.17191585569E+04  0.17112392350E+04 0.  0.
        2    1    3    3  502    0  0.58503350258E+02  0.23812090349E+03 -0.74111448288E+03  0.78062467512E+03  0.25500000920E-02 0. -1.
       -2    1    3    3    0  502 -0.58503350258E+02 -0.23812090349E+03  0.90593688557E+03  0.93853388182E+03  0.25500000920E-02 0.  1.
</event>
<event>
 5   0  0.1255362E-04  0.1797362E+04  0.7818609E-02  0.8707703E-01
        2   -1    0    0  501    0  0.00000000000E+00  0.00000000000E+00  0.18291713328E+04  0.18291713328E+04  0.25500000920E-02 0. -1.
       -2   -1    0    0    0  501  0.00000000000E+00  0.00000000000E+00 -0.44152667315E+03  0.44152667316E+03  0.25500000920E-02 0.  1.
    10030    2    1    2    0    0  0.00000000000E+00  0.00000000000E+00  0.13876446596E+04  0.22706980059E+04  0.17973624378E+04 0.  0.
        1    1    3    3  502    0 -0.39155048643E+03  0.80809023046E+03  0.73948381483E+03  0.11632531609E+04  0.50400001928E-02 0. -1.
       -1    1    3    3    0  502  0.39155048643E+03 -0.80809023046E+03  0.64816084481E+03  0.11074448450E+04  0.50400001928E-02 0.  1.
</event>
<event>
 5   0  0.1393870E-04  0.1713141E+04  0.7818609E-02  0.8753905E-01
        2   -1    0    0  501    0  0.00000000000E+00  0.00000000000E+00  0.20779915556E+04  0.20779915556E+04  0.25500000920E-02 0.  1.
       -2   -1    0    0    0  501  0.00000000000E+00  0.00000000000E+00 -0.35308774047E+03  0.35308774048E+03  0.25500000920E-02 0. -1.
    10030    2    1    2    0    0  0.00000000000E+00  0.00000000000E+00  0.17249038151E+04  0.24310792961E+04  0.17131413755E+04 0.  0.
        3    1    3    3  502    0 -0.23295422194E+03 -0.49802141981E+03 -0.69634604016E+02  0.55420392672E+03  0.10100000352E+00 0. -1.
       -3    1    3    3    0  502  0.23295422194E+03  0.49802141981E+03  0.17945384191E+04  0.18768753694E+04  0.10100000352E+00 0.  1.
</event>
<event>
 5   0  0.6834837E-05  0.1748046E+04  0.7818609E-02  0.8734427E-01
       -1   -1    0    0    0  501  0.00000000000E+00  0.00000000000E+00  0.49732196089E+03  0.49732196092E+03  0.50400001928E-02 0. -1.
        1   -1    0    0  501    0  0.00000000000E+00  0.00000000000E+00 -0.15360589391E+04  0.15360589391E+04  0.50400001928E-02 0.  1.
    10030    2    1    2    0    0  0.00000000000E+00  0.00000000000E+00 -0.10387369782E+04  0.20333809000E+04  0.17480455871E+04 0.  0.
        5    1    3    3  502    0 -0.29237861380E+03 -0.61917319310E+03  0.11246308517E+03  0.69392415463E+03  0.46999998093E+01 0. -1.
       -5    1    3    3    0  502  0.29237861380E+03  0.61917319310E+03 -0.11512000634E+04  0.13394567454E+04  0.46999998093E+01 0.  1.
</event>
<event>
 5   0  0.1393870E-04  0.1678765E+04  0.7818609E-02  0.8773569E-01
       -2   -1    0    0    0  501  0.00000000000E+00  0.00000000000E+00  0.59255433639E+03  0.59255433640E+03  0.25500000920E-02 0.  1.
        2   -1    0    0  501    0  0.00000000000E+00  0.00000000000E+00 -0.11890273969E+04  0.11890273969E+04  0.25500000920E-02 0. -1.
    10030    2    1    2    0    0  0.00000000000E+00  0.00000000000E+00 -0.59647306050E+03  0.17815817333E+04  0.16787654275E+04 0.  0.
        3    1    3    3  502    0 -0.20634104070E+03  0.86380670286E+02  0.56033974222E+03  0.60333977342E+03  0.10100000352E+00 0.  1.
       -3    1    3    3    0  502  0.20634104070E+03 -0.86380670286E+02 -0.11568128027E+04  0.11782419599E+04  0.10100000352E+00 0. -1.
</event>
<event>
 5   0  0.6564887E-05  0.1713653E+04  0.7818609E-02  0.8753616E-01
        1   -1    0    0  501    0  0.00000000000E+00  0.00000000000E+00  0.85726719023E+03  0.85726719025E+03  0.50400001928E-02 0. -1.
       -1   -1    0    0    0  501  0.00000000000E+00  0.00000000000E+00 -0.85638629264E+03  0.85638629266E+03  0.50400001928E-02 0.  1.
    10030    2    1    2    0    0  0.00000000000E+00  0.00000000000E+00  0.88089759184E+00  0.17136534829E+04  0.17136532565E+04 0.  0.
        4    1    3    3  502    0 -0.32124868844E+03  0.79319748289E+03 -0.41835924766E+02  0.85680500943E+03  0.12699999809E+01 0. -1.
       -4    1    3    3    0  502  0.32124868844E+03 -0.79319748289E+03  0.42716822358E+02  0.85684847347E+03  0.12699999809E+01 0.  1.
</event>
<event>
 5   0  0.6564887E-05  0.1689321E+04  0.7818609E-02  0.8767478E-01
        1   -1    0    0  501    0  0.00000000000E+00  0.00000000000E+00  0.12054906798E+04  0.12054906799E+04  0.50400001928E-02 0.  1.
       -1   -1    0    0    0  501  0.00000000000E+00  0.00000000000E+00 -0.59183509104E+03  0.59183509106E+03  0.50400001928E-02 0. -1.
    10030    2    1    2    0    0  0.00000000000E+00  0.00000000000E+00  0.61365558881E+03  0.17973257709E+04  0.16893213860E+04 0.  0.
        4    1    3    3  502    0 -0.24811241905E+03  0.11070362232E+03  0.11577319298E+04  0.11891845520E+04  0.12699999809E+01 0.  1.
       -4    1    3    3    0  502  0.24811241905E+03 -0.11070362232E+03 -0.54407634097E+03  0.60814121896E+03  0.12699999809E+01 0. -1.
</event>
<event>
 5   0  0.1393870E-04  0.1701542E+04  0.7818609E-02  0.8760485E-01
        2   -1    0    0  501    0  0.00000000000E+00  0.00000000000E+00  0.17294740278E+04  0.17294740278E+04  0.25500000920E-02 0. -1.
       -2   -1    0    0    0  501  0.00000000000E+00  0.00000000000E+00 -0.41851539607E+03  0.41851539607E+03  0.25500000920E-02 0.  1.
    10030    2    1    2    0    0  0.00000000000E+00  0.00000000000E+00  0.13109586317E+04  0.21479894239E+04  0.17015422507E+04 0.  0.
        3    1    3    3  502    0  0.76510585142E+03 -0.13919971850E+03  0.21991689592E+03  0.80816271679E+03  0.10100000352E+00 0.  1.
       -3    1    3    3    0  502 -0.76510585142E+03  0.13919971850E+03  0.10910417358E+04  0.13398267071E+04  0.10100000352E+00 0. -1.
</event>
<event>
 5   0  0.6615842E-05  0.1672679E+04  0.7818609E-02  0.8777102E-01
        1   -1    0    0  501    0  0.00000000000E+00  0.00000000000E+00  0.63040649209E+03  0.63040649211E+03  0.50400001928E-02 0.  1.
       -1   -1    0    0    0  501  0.00000000000E+00  0.00000000000E+00 -0.11095439048E+04  0.11095439048E+04  0.50400001928E-02 0. -1.
    10030    2    1    2    0    0  0.00000000000E+00  0.00000000000E+00 -0.47913741270E+03  0.17399503969E+04  0.16726789063E+04 0.  0.
        3    1    3    3  502    0 -0.70989647321E+02 -0.66666426608E+03 -0.75965982261E+03  0.10131948628E+04  0.10100000352E+00 0. -1.
       -3    1    3    3    0  502  0.70989647321E+02  0.66666426608E+03  0.28052240991E+03  0.72675553411E+03  0.10100000352E+00 0.  1.
</event>
<event>
 5   0  0.6601906E-05  0.1697514E+04  0.7818609E-02  0.8762783E-01
       -1   -1    0    0    0  501  0.00000000000E+00  0.00000000000E+00  0.56681385261E+03  0.56681385263E+03  0.50400001928E-02 0. -1.
        1   -1    0    0  501    0  0.00000000000E+00  0.00000000000E+00 -0.12709442608E+04  0.12709442608E+04  0.50400001928E-02 0.  1.
    10030    2    1    2    0    0  0.00000000000E+00  0.00000000000E+00 -0.70413040819E+03  0.18377581134E+04  0.16975144335E+04 0.  0.
        1    1    3    3  502    0  0.42250686808E+03  0.44917761327E+03 -0.98344190585E+03  0.11607887681E+04  0.50400001928E-02 0. -1.
       -1    1    3    3    0  502 -0.42250686808E+03 -0.44917761327E+03  0.27931149766E+03  0.67696934538E+03  0.50400001928E-02 0.  1.
</event>
<event>
 5   0  0.6564887E-05  0.1699710E+04  0.7818609E-02  0.8761530E-01
       -1   -1    0    0    0  501  0.00000000000E+00  0.00000000000E+00  0.10200729492E+04  0.10200729493E+04  0.50400001928E-02 0.  1.
        1   -1    0    0  501    0  0.00000000000E+00  0.00000000000E+00 -0.70804117983E+03  0.70804117985E+03  0.50400001928E-02 0. -1.
    10030    2    1    2    0    0  0.00000000000E+00  0.00000000000E+00  0.31203176941E+03  0.17281141291E+04  0.16997101571E+04 0.  0.
        4    1    3    3  502    0 -0.32182850357E+03 -0.55978577539E+03  0.71780587737E+03  0.96549499767E+03  0.12699999809E+01 0.  1.
       -4    1    3    3    0  502  0.32182850357E+03  0.55978577539E+03 -0.40577410796E+03  0.76261913143E+03  0.12699999809E+01 0. -1.
</event>
<event>
 5   0  0.1269175E-04  0.1695832E+04  0.7818609E-02  0.8763745E-01
        2   -1    0    0  501    0  0.00000000000E+00  0.00000000000E+00  0.15180705109E+04  0.15180705109E+04  0.25500000920E-02 0.  1.
       -2   -1    0    0    0  501  0.00000000000E+00  0.00000000000E+00 -0.47360222536E+03  0.47360222536E+03  0.25500000920E-02 0. -1.
    10030    2    1    2    0    0  0.00000000000E+00  0.00000000000E+00  0.10444682855E+04  0.19916727362E+04  0.16958320344E+04 0.  0.
        2    1    3    3  502    0  0.48300689940E+03 -0.61916776535E+03  0.89786995183E+03  0.11928264069E+04  0.25500000920E-02 0.  1.
       -2    1    3    3    0  502 -0.48300689940E+03  0.61916776535E+03  0.14659833369E+03  0.79884632938E+03  0.25500000920E-02 0. -1.
</event>
<event>
 5   0  0.1269175E-04  0.1694805E+04  0.7818609E-02  0.8764333E-01
        2   -1    0    0  501    0  0.00000000000E+00  0.00000000000E+00  0.15102794390E+04  0.15102794390E+04  0.25500000920E-02 0. -1.
       -2   -1    0    0    0  501  0.00000000000E+00  0.00000000000E+00 -0.47546875219E+03  0.47546875220E+03  0.25500000920E-02 0.  1.
    10030    2    1    2    0    0  0.00000000000E+00  0.00000000000E+00  0.10348106868E+04  0.19857481912E+04  0.16948046263E+04 0.  0.
        2    1    3    3  502    0 -0.33590460965E+03  0.38872780607E+03 -0.27218883723E+03  0.58140173471E+03  0.25500000920E-02 0.  1.
       -2    1    3    3    0  502  0.33590460965E+03 -0.38872780607E+03  0.13069995240E+04  0.14043464565E+04  0.25500000920E-02 0. -1.
</event>
<event>
 5   0  0.1269175E-04  0.1703510E+04  0.7818609E-02  0.8759365E-01
        2   -1    0    0  501    0  0.00000000000E+00  0.00000000000E+00  0.17037656161E+04  0.17037656161E+04  0.25500000920E-02 0.  1.
       -2   -1    0    0    0  501  0.00000000000E+00  0.00000000000E+00 -0.42581373437E+03  0.42581373438E+03  0.25500000920E-02 0. -1.
    10030    2    1    2    0    0  0.00000000000E+00  0.00000000000E+00  0.12779518817E+04  0.21295793505E+04  0.17035102577E+04 0.  0.
        2    1    3    3  502    0  0.58518625600E+03 -0.19578489499E+02 -0.13433812064E+03  0.60072706126E+03  0.25500000920E-02 0. -1.
       -2    1    3    3    0  502 -0.58518625600E+03  0.19578489499E+02  0.14122900024E+04  0.15288522892E+04  0.25500000920E-02 0.  1.
</event>
<event>
 5   0  0.6539134E-05  0.1694123E+04  0.7818609E-02  0.8764723E-01
       -1   -1    0    0    0  501  0.00000000000E+00  0.00000000000E+00  0.68629740017E+03  0.68629740019E+03  0.50400001928E-02 0. -1.
        1   -1    0    0  501    0  0.00000000000E+00  0.00000000000E+00 -0.10454840712E+04  0.10454840712E+04  0.50400001928E-02 0.  1.
    10030    2    1    2    0    0  0.00000000000E+00  0.00000000000E+00 -0.35918667101E+03  0.17317814714E+04  0.16941227819E+04 0.  0.
        2    1    3    3  502    0 -0.51032667972E+03 -0.27597476917E+03 -0.81049798730E+03  0.99674589574E+03  0.25500000920E-02 0.  1.
       -2    1    3    3    0  502  0.51032667972E+03  0.27597476917E+03  0.45131131629E+03  0.73503557565E+03  0.25500000920E-02 0. -1.
</event>
<event>
 5   0  0.6564887E-05  0.1700858E+04  0.7818609E-02  0.8760875E-01
       -1   -1    0    0    0  501  0.00000000000E+00  0.00000000000E+00  0.48755835811E+03  0.48755835814E+03  0.50400001928E-02 0. -1.
        1   -1    0    0  501    0  0.00000000000E+00  0.00000000000E+00 -0.14833706045E+04  0.14833706046E+04  0.50400001928E-02 0.  1.
    10030    2    1    2    0    0  0.00000000000E+00  0.00000000000E+00 -0.99581224643E+03  0.19709289627E+04  0.17008582968E+04 0.  0.
        4    1    3    3  502    0  0.76130596088E+03 -0.27146929857E+03 -0.80437303312E+03  0.11403069479E+04  0.12699999809E+01 0.  1.
       -4    1    3    3    0  502 -0.76130596088E+03  0.27146929857E+03 -0.19143921331E+03  0.83062201478E+03  0.12699999809E+01 0. -1.
</event>
<event>
 5   0  0.6615842E-05  0.1701340E+04  0.7818609E-02  0.8760600E-01
       -1   -1    0    0    0  501  0.00000000000E+00  0.00000000000E+00  0.34128693160E+03  0.34128693164E+03  0.50400001928E-02 0.  1.
        1   -1    0    0  501    0  0.00000000000E+00  0.00000000000E+00 -0.21203268797E+04  0.21203268798E+04  0.50400001928E-02 0. -1.
    10030    2    1    2    0    0  0.00000000000E+00  0.00000000000E+00 -0.17790399482E+04  0.24616138114E+04  0.17013404772E+04 0.  0.
        3    1    3    3  502    0 -0.43407432569E+03  0.10532522894E+03 -0.19370018190E+04  0.19878355015E+04  0.10100000352E+00 0. -1.
       -3    1    3    3    0  502  0.43407432569E+03 -0.10532522894E+03  0.15796187084E+03  0.47377830989E+03  0.10100000352E+00 0.  1.
</event>
<event>
 5   0  0.1333546E-04  0.1701632E+04  0.7818609E-02  0.8760434E-01
        2   -1    0    0  501    0  0.00000000000E+00  0.00000000000E+00  0.10608056944E+04  0.10608056944E+04  0.25500000920E-02 0.  1.
       -2   -1    0    0    0  501  0.00000000000E+00  0.00000000000E+00 -0.68239401529E+03  0.68239401529E+03  0.25500000920E-02 0. -1.
    10030    2    1    2    0    0  0.00000000000E+00  0.00000000000E+00  0.37841167916E+03  0.17431997097E+04  0.17016315198E+04 0.  0.
        5    1    3    3  502    0 -0.67176376161E+03 -0.50620368657E+03  0.32022316166E+03  0.90004093627E+03  0.46999998093E+01 0.  1.
       -5    1    3    3    0  502  0.67176376161E+03  0.50620368657E+03  0.58188517500E+02  0.84315877347E+03  0.46999998093E+01 0. -1.
</event>
<event>
 5   0  0.6564887E-05  0.1638241E+04  0.7818609E-02  0.8797394E-01
       -1   -1    0    0    0  501  0.00000000000E+00  0.00000000000E+00  0.30051072527E+03  0.30051072531E+03  0.50400001928E-02 0. -1.
        1   -1    0    0  501    0  0.00000000000E+00  0.00000000000E+00 -0.22327265282E+04  0.22327265282E+04  0.50400001928E-02 0.  1.
    10030    2    1    2    0    0  0.00000000000E+00  0.00000000000E+00 -0.19322158029E+04  0.25332372535E+04  0.16382408472E+04 0.  0.
        4    1    3    3  502    0 -0.28126571915E+03 -0.25983367855E+03  0.15359187556E+03  0.41257244505E+03  0.12699999809E+01 0. -1.
       -4    1    3    3    0  502  0.28126571915E+03  0.25983367855E+03 -0.20858076785E+04  0.21206648085E+04  0.12699999809E+01 0.  1.
</event>
<event>
 5   0  0.1333546E-04  0.1696365E+04  0.7818609E-02  0.8763440E-01
       -2   -1    0    0    0  501  0.00000000000E+00  0.00000000000E+00  0.12111013646E+04  0.12111013646E+04  0.25500000920E-02 0.  1.
        2   -1    0    0  501    0  0.00000000000E+00  0.00000000000E+00 -0.59401626501E+03  0.59401626502E+03  0.25500000920E-02 0. -1.
    10030    2    1    2    0    0  0.00000000000E+00  0.00000000000E+00  0.61708509958E+03  0.18051176296E+04  0.16963654195E+04 0.  0.
        5    1    3    3  502    0 -0.38142192660E+03 -0.25330830104E+03 -0.45119252031E+03  0.64284100822E+03  0.46999998093E+01 0. -1.
       -5    1    3    3    0  502  0.38142192660E+03  0.25330830104E+03  0.10682776199E+04  0.11622766214E+04  0.46999998093E+01 0.  1.
</event>
<event>
 5   0  0.6564887E-05  0.1702959E+04  0.7818609E-02  0.8759679E-01
       -1   -1    0    0    0  501  0.00000000000E+00  0.00000000000E+00  0.92049797711E+03  0.92049797713E+03  0.50400001928E-02 0. -1.
        1   -1    0    0  501    0  0.00000000000E+00  0.00000000000E+00 -0.78763603920E+03  0.78763603922E+03  0.50400001928E-02 0.  1.
    10030    2    1    2    0    0  0.00000000000E+00  0.00000000000E+00  0.13286193791E+03  0.17081340163E+04  0.17029590492E+04 0.  0.
        4    1    3    3  502    0  0.63210839226E+03  0.25730628822E+03  0.57714246091E+03  0.89379112694E+03  0.12699999809E+01 0. -1.
       -4    1    3    3    0  502 -0.63210839226E+03 -0.25730628822E+03 -0.44428052300E+03  0.81434288941E+03  0.12699999809E+01 0.  1.
</event>
<event>
 5   0  0.4720875E-05  0.1736780E+04  0.7818609E-02  0.8740661E-01
       -3   -1    0    0    0  501  0.00000000000E+00  0.00000000000E+00  0.21014295294E+04  0.21014295318E+04  0.10100000352E+00 0. -1.
        3   -1    0    0  501    0  0.00000000000E+00  0.00000000000E+00 -0.35885155254E+03  0.35885156676E+03  0.10100000352E+00 0.  1.
    10030    2    1    2    0    0  0.00000000000E+00  0.00000000000E+00  0.17425779768E+04  0.24602810986E+04  0.17367800893E+04 0.  0.
        2    1    3    3  502    0  0.20316744719E+02 -0.47140487866E+03  0.19039971683E+04  0.19615913302E+04  0.25500000920E-02 0. -1.
       -2    1    3    3    0  502 -0.20316744719E+02  0.47140487866E+03 -0.16141919144E+03  0.49868976840E+03  0.25500000920E-02 0.  1.
</event>
<event>
 5   0  0.6615842E-05  0.1708790E+04  0.7818609E-02  0.8756367E-01
       -1   -1    0    0    0  501  0.00000000000E+00  0.00000000000E+00  0.73809645555E+03  0.73809645557E+03  0.50400001928E-02 0.  1.
        1   -1    0    0  501    0  0.00000000000E+00  0.00000000000E+00 -0.98901830916E+03  0.98901830918E+03  0.50400001928E-02 0. -1.
    10030    2    1    2    0    0  0.00000000000E+00  0.00000000000E+00 -0.25092185361E+03  0.17271147647E+04  0.17087901082E+04 0.  0.
        3    1    3    3  502    0 -0.63478621654E+03 -0.56675626836E+03 -0.20259901630E+03  0.87476429971E+03  0.10100000352E+00 0. -1.
       -3    1    3    3    0  502  0.63478621654E+03  0.56675626836E+03 -0.48322837311E+02  0.85235046503E+03  0.10100000352E+00 0.  1.
</event>
<event>
 5   0  0.6615842E-05  0.1685789E+04  0.7818609E-02  0.8769511E-01
       -1   -1    0    0    0  501  0.00000000000E+00  0.00000000000E+00  0.47148329756E+03  0.47148329758E+03  0.50400001928E-02 0. -1.
        1   -1    0    0  501    0  0.00000000000E+00  0.00000000000E+00 -0.15068854084E+04  0.15068854084E+04  0.50400001928E-02 0.  1.
    10030    2    1    2    0    0  0.00000000000E+00  0.00000000000E+00 -0.10354021108E+04  0.19783687060E+04  0.16857891937E+04 0.  0.
        3    1    3    3  502    0  0.25585703177E+03  0.75720004187E+03 -0.83184736864E+03  0.11535964542E+04  0.10100000352E+00 0.  1.
       -3    1    3    3    0  502 -0.25585703177E+03 -0.75720004187E+03 -0.20355474219E+03  0.82477225183E+03  0.10100000352E+00 0. -1.
</event>
<event>
 5   0  0.1285639E-04  0.1706060E+04  0.7818609E-02  0.8757916E-01
        2   -1    0    0  501    0  0.00000000000E+00  0.00000000000E+00  0.20791653092E+04  0.20791653092E+04  0.25500000920E-02 0. -1.
       -2   -1    0    0    0  501  0.00000000000E+00  0.00000000000E+00 -0.34997695334E+03  0.34997695335E+03  0.25500000920E-02 0.  1.
    10030    2    1    2    0    0  0.00000000000E+00  0.00000000000E+00  0.17291883559E+04  0.24291422626E+04  0.17060597181E+04 0.  0.
        4    1    3    3  502    0 -0.70717462034E+03  0.98980274802E+02  0.15290300159E+04  0.16875507224E+04  0.12699999809E+01 0. -1.
       -4    1    3    3    0  502  0.70717462034E+03 -0.98980274802E+02  0.20015834003E+03  0.74159154016E+03  0.12699999809E+01 0.  1.
</event>
<event>
 5   0  0.1269175E-04  0.1696419E+04  0.7818609E-02  0.8763409E-01
        2   -1    0    0  501    0  0.00000000000E+00  0.00000000000E+00  0.15433903504E+04  0.15433903504E+04  0.25500000920E-02 0.  1.
       -2   -1    0    0    0  501  0.00000000000E+00  0.00000000000E+00 -0.46615518899E+03  0.46615518900E+03  0.25500000920E-02 0. -1.
    10030    2    1    2    0    0  0.00000000000E+00  0.00000000000E+00  0.10772351614E+04  0.20095455394E+04  0.16964190762E+04 0.  0.
        2    1    3    3  502    0  0.43492187591E+03 -0.61934066927E+03  0.99235923528E+03  0.12480051100E+04  0.25500000920E-02 0.  1.
       -2    1    3    3    0  502 -0.43492187591E+03  0.61934066927E+03  0.84875926124E+02  0.76154042939E+03  0.25500000920E-02 0. -1.
</event>
<event>
 5   0  0.6615842E-05  0.1696774E+04  0.7818609E-02  0.8763207E-01
        1   -1    0    0  501    0  0.00000000000E+00  0.00000000000E+00  0.94305894986E+03  0.94305894987E+03  0.50400001928E-02 0. -1.
       -1   -1    0    0    0  501  0.00000000000E+00  0.00000000000E+00 -0.76321856374E+03  0.76321856376E+03  0.50400001928E-02 0.  1.
    10030    2    1    2    0    0  0.00000000000E+00  0.00000000000E+00  0.17984038612E+03  0.17062775136E+04  0.16967735232E+04 0.  0.
        3    1    3    3  502    0 -0.61161748278E+03 -0.32931047626E+03 -0.39987960766E+03  0.80151422061E+03  0.10100000352E+00 0. -1.
       -3    1    3    3    0  502  0.61161748278E+03  0.32931047626E+03  0.57971999378E+03  0.90476329302E+03  0.10100000352E+00 0.  1.
</event>
<event>
 5   0  0.1393870E-04  0.1703729E+04  0.7818609E-02  0.8759240E-01
       -2   -1    0    0    0  501  0.00000000000E+00  0.00000000000E+00  0.20997706678E+04  0.20997706678E+04  0.25500000920E-02 0. -1.
        2   -1    0    0  501    0  0.00000000000E+00  0.00000000000E+00 -0.34559657177E+03  0.34559657178E+03  0.25500000920E-02 0.  1.
    10030    2    1    2    0    0  0.00000000000E+00  0.00000000000E+00  0.17541740961E+04  0.24453672396E+04  0.17037294906E+04 0.  0.
        3    1    3    3  502    0  0.26373106857E+02 -0.66831869649E+03  0.11986720420E+03  0.67949509026E+03  0.10100000352E+00 0.  1.
       -3    1    3    3    0  502 -0.26373106857E+02  0.66831869649E+03  0.16343068919E+04  0.17658721493E+04  0.10100000352E+00 0. -1.
</event>
<event>
 5   0  0.6601906E-05  0.1699349E+04  0.7818609E-02  0.8761736E-01
       -1   -1    0    0    0  501  0.00000000000E+00  0.00000000000E+00  0.52881934535E+03  0.52881934537E+03  0.50400001928E-02 0. -1.
        1   -1    0    0  501    0  0.00000000000E+00  0.00000000000E+00 -0.13652047010E+04  0.13652047010E+04  0.50400001928E-02 0.  1.
    10030    2    1    2    0    0  0.00000000000E+00  0.00000000000E+00 -0.83638535568E+03  0.18940240464E+04  0.16993488827E+04 0.  0.
        1    1    3    3  502    0 -0.31448635580E+03 -0.38577515154E+03 -0.11857203203E+04  0.12859458828E+04  0.50400001928E-02 0.  1.
       -1    1    3    3    0  502  0.31448635580E+03  0.38577515154E+03  0.34933496461E+03  0.60807816361E+03  0.50400001928E-02 0. -1.
</event>
<event>
 5   0  0.6564887E-05  0.1705681E+04  0.7818609E-02  0.8758131E-01
       -1   -1    0    0    0  501  0.00000000000E+00  0.00000000000E+00  0.48154347723E+03  0.48154347726E+03  0.50400001928E-02 0. -1.
        1   -1    0    0  501    0  0.00000000000E+00  0.00000000000E+00 -0.15104286433E+04  0.15104286434E+04  0.50400001928E-02 0.  1.
    10030    2    1    2    0    0  0.00000000000E+00  0.00000000000E+00 -0.10288851661E+04  0.19919721206E+04  0.17056811672E+04 0.  0.
        4    1    3    3  502    0 -0.40674874986E+03 -0.33470590900E+03 -0.12977377918E+04  0.14005704481E+04  0.12699999809E+01 0.  1.
       -4    1    3    3    0  502  0.40674874986E+03  0.33470590900E+03  0.26885262565E+03  0.59140167251E+03  0.12699999809E+01 0. -1.
</event>
<event>
 5   0  0.6834837E-05  0.1692490E+04  0.7818609E-02  0.8765659E-01
        1   -1    0    0  501    0  0.00000000000E+00  0.00000000000E+00  0.88100436684E+03  0.88100436685E+03  0.50400001928E-02 0.  1.
       -1   -1    0    0    0  501  0.00000000000E+00  0.00000000000E+00 -0.81285736635E+03  0.81285736637E+03  0.50400001928E-02 0. -1.
    10030    2    1    2    0    0  0.00000000000E+00  0.00000000000E+00  0.68147000485E+02  0.16938617332E+04  0.16924903420E+04 0.  0.
        5    1    3    3  502    0 -0.69088471912E+03 -0.48635837761E+03 -0.13321316109E+02  0.84502409080E+03  0.46999998093E+01 0. -1.
       -5    1    3    3    0  502  0.69088471912E+03  0.48635837761E+03  0.81468316594E+02  0.84883764242E+03  0.46999998093E+01 0.  1.
</event>
<event>
 5   0  0.1393870E-04  0.1691123E+04  0.7818609E-02  0.8766444E-01
        2   -1    0    0  501    0  0.00000000000E+00  0.00000000000E+00  0.17748923885E+04  0.17748923885E+04  0.25500000920E-02 0. -1.
       -2   -1    0    0    0  501  0.00000000000E+00  0.00000000000E+00 -0.40282672037E+03  0.40282672038E+03  0.25500000920E-02 0.  1.
    10030    2    1    2    0    0  0.00000000000E+00  0.00000000000E+00  0.13720656681E+04  0.21777191089E+04  0.16911227985E+04 0.  0.
        3    1    3    3  502    0 -0.67724395837E+03 -0.96440216900E+02  0.13260438952E+04  0.14920966848E+04  0.10100000352E+00 0. -1.
       -3    1    3    3    0  502  0.67724395837E+03  0.96440216900E+02  0.46021772893E+02  0.68562242406E+03  0.10100000352E+00 0.  1.
</event>
<event>
 5   0  0.6601906E-05  0.1710882E+04  0.7818609E-02  0.8755182E-01
        1   -1    0    0  501    0  0.00000000000E+00  0.00000000000E+00  0.10255933379E+04  0.10255933379E+04  0.50400001928E-02 0. -1.
       -1   -1    0    0    0  501  0.00000000000E+00  0.00000000000E+00 -0.71351790735E+03  0.71351790736E+03  0.50400001928E-02 0.  1.
    10030    2    1    2    0    0  0.00000000000E+00  0.00000000000E+00  0.31207543051E+03  0.17391112452E+04  0.17108818922E+04 0.  0.
        1    1    3    3  502    0 -0.49420903660E+03  0.32524084215E+03 -0.47202023910E+03  0.75685354158E+03  0.50400001928E-02 0.  1.
       -1    1    3    3    0  502  0.49420903660E+03 -0.32524084215E+03  0.78409566960E+03  0.98225770365E+03  0.50400001928E-02 0. -1.
</event>
<event>
 5   0  0.1255362E-04  0.1700080E+04  0.7818609E-02  0.8761319E-01
       -2   -1    0    0    0  501  0.00000000000E+00  0.00000000000E+00  0.42586470785E+03  0.42586470786E+03  0.25500000920E-02 0. -1.
        2   -1    0    0  501    0  0.00000000000E+00  0.00000000000E+00 -0.16967084475E+04  0.16967084475E+04  0.25500000920E-02 0.  1.
    10030    2    1    2    0    0  0.00000000000E+00  0.00000000000E+00 -0.12708437397E+04  0.21225731554E+04  0.17000802891E+04 0.  0.
        1    1    3    3  502    0 -0.44297544410E+02 -0.84140781660E+03 -0.77578311235E+03  0.11453247678E+04  0.50400001928E-02 0.  1.
       -1    1    3    3    0  502  0.44297544410E+02  0.84140781660E+03 -0.49506062732E+03  0.97724838758E+03  0.50400001928E-02 0. -1.
</event>
<event>
 5   0  0.6564887E-05  0.1704805E+04  0.7818609E-02  0.8758629E-01
        1   -1    0    0  501    0  0.00000000000E+00  0.00000000000E+00  0.19953707475E+04  0.19953707475E+04  0.50400001928E-02 0. -1.
       -1   -1    0    0    0  501  0.00000000000E+00  0.00000000000E+00 -0.36413784760E+03  0.36413784763E+03  0.50400001928E-02 0.  1.
    10030    2    1    2    0    0  0.00000000000E+00  0.00000000000E+00  0.16312328999E+04  0.23595085951E+04  0.17048049850E+04 0.  0.
        4    1    3    3  502    0  0.38498284137E+03  0.20587262478E+03  0.18288893897E+04  0.18802748039E+04  0.12699999809E+01 0. -1.
       -4    1    3    3    0  502 -0.38498284137E+03 -0.20587262478E+03 -0.19765648977E+03  0.47923379120E+03  0.12699999809E+01 0.  1.
</event>
<event>
 5   0  0.6834837E-05  0.1702127E+04  0.7818609E-02  0.8760152E-01
       -1   -1    0    0    0  501  0.00000000000E+00  0.00000000000E+00  0.52902372036E+03  0.52902372038E+03  0.50400001928E-02 0. -1.
        1   -1    0    0  501    0  0.00000000000E+00  0.00000000000E+00 -0.13691432902E+04  0.13691432902E+04  0.50400001928E-02 0.  1.
    10030    2    1    2    0    0  0.00000000000E+00  0.00000000000E+00 -0.84011956986E+03  0.18981670106E+04  0.17021272304E+04 0.  0.
        5    1    3    3  502    0  0.42869278044E+03  0.71505697994E+03 -0.22948842105E+03  0.86473753819E+03  0.46999998093E+01 0. -1.
       -5    1    3    3    0  502 -0.42869278044E+03 -0.71505697994E+03 -0.61063114881E+03  0.10334294724E+04  0.46999998093E+01 0.  1.
</event>
<event>
 5   0  0.6539134E-05  0.1675671E+04  0.7818609E-02  0.8775363E-01
        1   -1    0    0  501    0  0.00000000000E+00  0.00000000000E+00  0.12524591091E+04  0.12524591091E+04  0.50400001928E-02 0.  1.
       -1   -1    0    0    0  501  0.00000000000E+00  0.00000000000E+00 -0.56047238263E+03  0.56047238265E+03  0.50400001928E-02 0. -1.
    10030    2    1    2    0    0  0.00000000000E+00  0.00000000000E+00  0.69198672648E+03  0.18129314918E+04  0.16756714965E+04 0.  0.
        2    1    3    3  502    0  0.78072356018E+02  0.79389304570E+03  0.62311378290E+03  0.10122412001E+04  0.25500000920E-02 0.  1.
       -2    1    3    3    0  502 -0.78072356018E+02 -0.79389304570E+03  0.68872943588E+02  0.80069029166E+03  0.25500000920E-02 0. -1.
</event>
<event>
 5   0  0.6564887E-05  0.1686884E+04  0.7818609E-02  0.8768880E-01
       -1   -1    0    0    0  501  0.00000000000E+00  0.00000000000E+00  0.58410207835E+03  0.58410207837E+03  0.50400001928E-02 0. -1.
        1   -1    0    0  501    0  0.00000000000E+00  0.00000000000E+00 -0.12179287896E+04  0.12179287896E+04  0.50400001928E-02 0.  1.
    10030    2    1    2    0    0  0.00000000000E+00  0.00000000000E+00 -0.63382671127E+03  0.18020308680E+04  0.16868843912E+04 0.  0.
        4    1    3    3  502    0 -0.12265120798E+03 -0.61746219242E+03 -0.91655858969E+03  0.11119281178E+04  0.12699999809E+01 0.  1.
       -4    1    3    3    0  502  0.12265120798E+03  0.61746219242E+03  0.28273187842E+03  0.69010275022E+03  0.12699999809E+01 0. -1.
</event>
<event>
 5   0  0.6834837E-05  0.1698693E+04  0.7818609E-02  0.8762110E-01
        1   -1    0    0  501    0  0.00000000000E+00  0.00000000000E+00  0.20581423855E+04  0.20581423855E+04  0.50400001928E-02 0.  1.
       -1   -1    0    0    0  501  0.00000000000E+00  0.00000000000E+00 -0.35050507112E+03  0.35050507116E+03  0.50400001928E-02 0. -1.
    10030    2    1    2    0    0  0.00000000000E+00  0.00000000000E+00  0.17076373143E+04  0.24086474566E+04  0.16986928425E+04 0.  0.
        5    1    3    3  502    0  0.44122866897E+03 -0.54003748459E+03  0.16638151311E+03  0.71695754476E+03  0.46999998093E+01 0. -1.
       -5    1    3    3    0  502 -0.44122866897E+03  0.54003748459E+03  0.15412558012E+04  0.16916899119E+04  0.46999998093E+01 0.  1.
</event>
<event>
 5   0  0.1269175E-04  0.1708603E+04  0.7818609E-02  0.8756473E-01
       -2   -1    0    0    0  501  0.00000000000E+00  0.00000000000E+00  0.89229607249E+03  0.89229607249E+03  0.25500000920E-02 0.  1.
        2   -1    0    0  501    0  0.00000000000E+00  0.00000000000E+00 -0.81792480356E+03  0.81792480356E+03  0.25500000920E-02 0. -1.
    10030    2    1    2    0    0  0.00000000000E+00  0.00000000000E+00  0.74371268928E+02  0.17102208761E+04  0.17086030432E+04 0.  0.
        2    1    3    3  502    0  0.20261702434E+03 -0.58210912731E+03 -0.55492025280E+03  0.82936191233E+03  0.25500000920E-02 0. -1.
       -2    1    3    3    0  502 -0.20261702434E+03  0.58210912731E+03  0.62929152172E+03  0.88085896372E+03  0.25500000920E-02 0.  1.
</event>
<event>
 5   0  0.6601906E-05  0.1677735E+04  0.7818609E-02  0.8774166E-01
        1   -1    0    0  501    0  0.00000000000E+00  0.00000000000E+00  0.16701427524E+04  0.16701427524E+04  0.50400001928E-02 0. -1.
       -1   -1    0    0    0  501  0.00000000000E+00  0.00000000000E+00 -0.42134030738E+03  0.42134030741E+03  0.50400001928E-02 0.  1.
    10030    2    1    2    0    0  0.00000000000E+00  0.00000000000E+00  0.12488024450E+04  0.20914830598E+04  0.16777347355E+04 0.  0.
        1    1    3    3  502    0 -0.37102321176E+03 -0.43822923882E+03 -0.13796591735E+03  0.59054016273E+03  0.50400001928E-02 0.  1.
       -1    1    3    3    0  502  0.37102321176E+03  0.43822923882E+03  0.13867683623E+04  0.15009428970E+04  0.50400001928E-02 0. -1.
</event>
<event>
 5   0  0.6601906E-05  0.1696372E+04  0.7818609E-02  0.8763437E-01
        1   -1    0    0  501    0  0.00000000000E+00  0.00000000000E+00  0.87935662253E+03  0.87935662255E+03  0.50400001928E-02 0. -1.
       -1   -1    0    0    0  501  0.00000000000E+00  0.00000000000E+00 -0.81811983364E+03  0.81811983365E+03  0.50400001928E-02 0.  1.
    10030    2    1    2    0    0  0.00000000000E+00  0.00000000000E+00  0.61236788897E+02  0.16974764562E+04  0.16963715321E+04 0.  0.
        1    1    3    3  502    0  0.25865088615E+03 -0.70848167202E+01  0.83889981826E+03  0.87789713557E+03  0.50400001928E-02 0. -1.
       -1    1    3    3    0  502 -0.25865088615E+03  0.70848167202E+01 -0.77766302937E+03  0.81957932063E+03  0.50400001928E-02 0.  1.
</event>
<event>
 5   0  0.6601906E-05  0.1694300E+04  0.7818609E-02  0.8764622E-01
        1   -1    0    0  501    0  0.00000000000E+00  0.00000000000E+00  0.68515440795E+03  0.68515440797E+03  0.50400001928E-02 0. -1.
       -1   -1    0    0    0  501  0.00000000000E+00  0.00000000000E+00 -0.10474468741E+04  0.10474468741E+04  0.50400001928E-02 0.  1.
    10030    2    1    2    0    0  0.00000000000E+00  0.00000000000E+00 -0.36229246616E+03  0.17326012821E+04  0.16942996700E+04 0.  0.
        1    1    3    3  502    0 -0.37855857935E+03  0.56678285101E+03  0.33333082401E+03  0.75872184393E+03  0.50400001928E-02 0. -1.
       -1    1    3    3    0  502  0.37855857935E+03 -0.56678285101E+03 -0.69562329017E+03  0.97387943815E+03  0.50400001928E-02 0.  1.
</event>
<event>
 5   0  0.1285639E-04  0.1699462E+04  0.7818609E-02  0.8761671E-01
        2   -1    0    0  501    0  0.00000000000E+00  0.00000000000E+00  0.79761896633E+03  0.79761896633E+03  0.25500000920E-02 0.  1.
       -2   -1    0    0    0  501  0.00000000000E+00  0.00000000000E+00 -0.90524729747E+03  0.90524729747E+03  0.25500000920E-02 0. -1.
    10030    2    1    2    0    0  0.00000000000E+00  0.00000000000E+00 -0.10762833114E+03  0.17028662638E+04  0.16994615779E+04 0.  0.
        4    1    3    3  502    0 -0.29521654637E+01 -0.84042899098E+03  0.71781260384E+02  0.84349497118E+03  0.12699999809E+01 0.  1.
       -4    1    3    3    0  502  0.29521654637E+01  0.84042899098E+03 -0.17940959153E+03  0.85937129263E+03  0.12699999809E+01 0. -1.
</event>
<event>
 5   0  0.6615842E-05  0.1700239E+04  0.7818609E-02  0.8761228E-01
       -1   -1    0    0    0  501  0.00000000000E+00  0.00000000000E+00  0.82230887699E+03  0.82230887701E+03  0.50400001928E-02 0. -1.
        1   -1    0    0  501    0  0.00000000000E+00  0.00000000000E+00 -0.87887021555E+03  0.87887021556E+03  0.50400001928E-02 0.  1.
    10030    2    1    2    0    0  0.00000000000E+00  0.00000000000E+00 -0.56561338554E+02  0.17011790926E+04  0.17002385480E+04 0.  0.
        3    1    3    3  502    0  0.53679892343E+03  0.64559323206E+03 -0.16161752767E+03  0.85502277217E+03  0.10100000352E+00 0.  1.
       -3    1    3    3    0  502 -0.53679892343E+03 -0.64559323206E+03  0.10505618912E+03  0.84615632040E+03  0.10100000352E+00 0. -1.
</event>
<event>
 5   0  0.1285639E-04  0.1689217E+04  0.7818609E-02  0.8767538E-01
       -2   -1    0    0    0  501  0.00000000000E+00  0.00000000000E+00  0.59657409462E+03  0.59657409463E+03  0.25500000920E-02 0.  1.
        2   -1    0    0  501    0  0.00000000000E+00  0.00000000000E+00 -0.11957668510E+04  0.11957668510E+04  0.25500000920E-02 0. -1.
    10030    2    1    2    0    0  0.00000000000E+00  0.00000000000E+00 -0.59919275635E+03  0.17923409456E+04  0.16892170098E+04 0.  0.
        4    1    3    3  502    0 -0.42350545214E+03 -0.52319156700E+03 -0.84091371107E+03  0.10771368372E+04  0.12699999809E+01 0. -1.
       -4    1    3    3    0  502  0.42350545214E+03  0.52319156700E+03  0.24172095472E+03  0.71520410837E+03  0.12699999809E+01 0.  1.
</event>
<event>
 5   0  0.1393870E-04  0.1627079E+04  0.7818609E-02  0.8804083E-01
        2   -1    0    0  501    0  0.00000000000E+00  0.00000000000E+00  0.53075693765E+03  0.53075693766E+03  0.25500000920E-02 0. -1.
       -2   -1    0    0    0  501  0.00000000000E+00  0.00000000000E+00 -0.12469867917E+04  0.12469867917E+04  0.25500000920E-02 0.  1.
    10030    2    1    2    0    0  0.00000000000E+00  0.00000000000E+00 -0.71622985407E+03  0.17777437294E+04  0.16270794583E+04 0.  0.
        3    1    3    3  502    0 -0.35726500038E+03 -0.33726806809E+03  0.35035617845E+03  0.60343805997E+03  0.10100000352E+00 0. -1.
       -3    1    3    3    0  502  0.35726500038E+03  0.33726806809E+03 -0.10665860325E+04  0.11743056694E+04  0.10100000352E+00 0.  1.
</event>
<event>
 5   0  0.1255362E-04  0.1701696E+04  0.7818609E-02  0.8760398E-01
        2   -1    0    0  501    0  0.00000000000E+00  0.00000000000E+00  0.13073364673E+04  0.13073364673E+04  0.25500000920E-02 0. -1.
       -2   -1    0    0    0  501  0.00000000000E+00  0.00000000000E+00 -0.55375345576E+03  0.55375345576E+03  0.25500000920E-02 0.  1.
    10030    2    1    2    0    0  0.00000000000E+00  0.00000000000E+00  0.75358301158E+03  0.18610899231E+04  0.17016957268E+04 0.  0.
        1    1    3    3  502    0 -0.36324092749E+03 -0.73306594993E+03  0.12120895928E+03  0.82705578420E+03  0.50400001928E-02 0.  1.
       -1    1    3    3    0  502  0.36324092749E+03  0.73306594993E+03  0.63237405230E+03  0.10340341389E+04  0.50400001928E-02 0. -1.
</event>
<event>
 5   0  0.1285639E-04  0.1690426E+04  0.7818609E-02  0.8766844E-01
       -2   -1    0    0    0  501  0.00000000000E+00  0.00000000000E+00  0.64752588443E+03  0.64752588443E+03  0.25500000920E-02 0. -1.
        2   -1    0    0  501    0  0.00000000000E+00  0.00000000000E+00 -0.11032527739E+04  0.11032527739E+04  0.25500000920E-02 0.  1.
    10030    2    1    2    0    0  0.00000000000E+00  0.00000000000E+00 -0.45572688942E+03  0.17507786583E+04  0.16904256602E+04 0.  0.
        4    1    3    3  502    0 -0.39804987523E+03  0.53060083720E+03 -0.77039990948E+03  0.10166113245E+04  0.12699999809E+01 0. -1.
       -4    1    3    3    0  502  0.39804987523E+03 -0.53060083720E+03  0.31467302006E+03  0.73416733383E+03  0.12699999809E+01 0.  1.
</event>
<event>
 5   0  0.6615842E-05  0.1695885E+04  0.7818609E-02  0.8763715E-01
        1   -1    0    0  501    0  0.00000000000E+00  0.00000000000E+00  0.10669297643E+04  0.10669297643E+04  0.50400001928E-02 0. -1.
       -1   -1    0    0    0  501  0.00000000000E+00  0.00000000000E+00 -0.67390242493E+03  0.67390242495E+03  0.50400001928E-02 0.  1.
    10030    2    1    2    0    0  0.00000000000E+00  0.00000000000E+00  0.39302733935E+03  0.17408321892E+04  0.16958850850E+04 0.  0.
        3    1    3    3  502    0 -0.64078470854E+03  0.50409283056E+03  0.43569544815E+03  0.92441611748E+03  0.10100000352E+00 0.  1.
       -3    1    3    3    0  502  0.64078470854E+03 -0.50409283056E+03 -0.42668108795E+02  0.81641607176E+03  0.10100000352E+00 0. -1.
</event>
<event>
 5   0  0.1393870E-04  0.1701990E+04  0.7818609E-02  0.8760230E-01
        2   -1    0    0  501    0  0.00000000000E+00  0.00000000000E+00  0.17099196983E+04  0.17099196983E+04  0.25500000920E-02 0.  1.
       -2   -1    0    0    0  501  0.00000000000E+00  0.00000000000E+00 -0.42352447671E+03  0.42352447672E+03  0.25500000920E-02 0. -1.
    10030    2    1    2    0    0  0.00000000000E+00  0.00000000000E+00  0.12863952215E+04  0.21334441750E+04  0.17019904176E+04 0.  0.
        3    1    3    3  502    0  0.60727009457E+03 -0.48497379031E+03  0.20858148757E+03  0.80466315449E+03  0.10100000352E+00 0.  1.
       -3    1    3    3    0  502 -0.60727009457E+03  0.48497379031E+03  0.10778137340E+04  0.13287810205E+04  0.10100000352E+00 0. -1.
</event>
<event>
 5   0  0.6615842E-05  0.1703916E+04  0.7818609E-02  0.8759134E-01
       -1   -1    0    0    0  501  0.00000000000E+00  0.00000000000E+00  0.55896553514E+03  0.55896553516E+03  0.50400001928E-02 0. -1.
        1   -1    0    0  501    0  0.00000000000E+00  0.00000000000E+00 -0.12985275187E+04  0.12985275187E+04  0.50400001928E-02 0.  1.
    10030    2    1    2    0    0  0.00000000000E+00  0.00000000000E+00 -0.73956198352E+03  0.18574930538E+04  0.17039156427E+04 0.  0.
        3    1    3    3  502    0  0.48406599940E+03 -0.19497448795E+03 -0.11038998866E+04  0.12210364092E+04  0.10100000352E+00 0.  1.
       -3    1    3    3    0  502 -0.48406599940E+03  0.19497448795E+03  0.36433790307E+03  0.63645664466E+03  0.10100000352E+00 0. -1.
</event>
<event>
 5   0  0.1285639E-04  0.1700273E+04  0.7818609E-02  0.8761209E-01
       -2   -1    0    0    0  501  0.00000000000E+00  0.00000000000E+00  0.31911132053E+03  0.31911132054E+03  0.25500000920E-02 0. -1.
        2   -1    0    0  501    0  0.00000000000E+00  0.00000000000E+00 -0.22648265344E+04  0.22648265344E+04  0.25500000920E-02 0.  1.
    10030    2    1    2    0    0  0.00000000000E+00  0.00000000000E+00 -0.19457152138E+04  0.25839378549E+04  0.17002726678E+04 0.  0.
        4    1    3    3  502    0 -0.41728363389E+02 -0.74985287100E+03 -0.36742602181E+03  0.83607659868E+03  0.12699999809E+01 0. -1.
       -4    1    3    3    0  502  0.41728363389E+02  0.74985287100E+03 -0.15782891920E+04  0.17478612562E+04  0.12699999809E+01 0.  1.
</event>
<event>
 5   0  0.1269175E-04  0.1680449E+04  0.7818609E-02  0.8772594E-01
        2   -1    0    0  501    0  0.00000000000E+00  0.00000000000E+00  0.12572159860E+04  0.12572159860E+04  0.25500000920E-02 0. -1.
       -2   -1    0    0    0  501  0.00000000000E+00  0.00000000000E+00 -0.56153992449E+03  0.56153992449E+03  0.25500000920E-02 0.  1.
    10030    2    1    2    0    0  0.00000000000E+00  0.00000000000E+00  0.69567606150E+03  0.18187559105E+04  0.16804487137E+04 0.  0.
        2    1    3    3  502    0 -0.68972013029E+03 -0.41983578771E+03  0.96330989038E+02  0.81317624549E+03  0.25500000920E-02 0.  1.
       -2    1    3    3    0  502  0.68972013029E+03  0.41983578771E+03  0.59934507247E+03  0.10055796650E+04  0.25500000920E-02 0. -1.
</event>
<event>
 5   0  0.1255362E-04  0.1699169E+04  0.7818609E-02  0.8761838E-01
        2   -1    0    0  501    0  0.00000000000E+00  0.00000000000E+00  0.13839748231E+04  0.13839748231E+04  0.25500000920E-02 0. -1.
       -2   -1    0    0    0  501  0.00000000000E+00  0.00000000000E+00 -0.52153699563E+03  0.52153699564E+03  0.25500000920E-02 0.  1.
    10030    2    1    2    0    0  0.00000000000E+00  0.00000000000E+00  0.86243782747E+03  0.19055118187E+04  0.16991692927E+04 0.  0.
        1    1    3    3  502    0  0.61002851682E+03 -0.57062552580E+03  0.25732094310E+03  0.87404939781E+03  0.50400001928E-02 0.  1.
       -1    1    3    3    0  502 -0.61002851682E+03  0.57062552580E+03  0.60511688437E+03  0.10314624209E+04  0.50400001928E-02 0. -1.
</event>
<event>
 5   0  0.1393870E-04  0.1704918E+04  0.7818609E-02  0.8758564E-01
       -2   -1    0    0    0  501  0.00000000000E+00  0.00000000000E+00  0.76856402393E+03  0.76856402393E+03  0.25500000920E-02 0. -1.
        2   -1    0    0  501    0  0.00000000000E+00  0.00000000000E+00 -0.94551205932E+03  0.94551205932E+03  0.25500000920E-02 0.  1.
    10030    2    1    2    0    0  0.00000000000E+00  0.00000000000E+00 -0.17694803539E+03  0.17140760833E+04  0.17049182420E+04 0.  0.
        3    1    3    3  502    0  0.75418433417E+03  0.14447564903E+03 -0.46062351877E+03  0.89545589468E+03  0.10100000352E+00 0.  1.
       -3    1    3    3    0  502 -0.75418433417E+03 -0.14447564903E+03  0.28367548338E+03  0.81862018857E+03  0.10100000352E+00 0. -1.
</event>
<event>
 5   0  0.1269175E-04  0.1705429E+04  0.7818609E-02  0.8758274E-01
       -2   -1    0    0    0  501  0.00000000000E+00  0.00000000000E+00  0.59281792475E+03  0.59281792476E+03  0.25500000920E-02 0. -1.
        2   -1    0    0  501    0  0.00000000000E+00  0.00000000000E+00 -0.12265517467E+04  0.12265517467E+04  0.25500000920E-02 0.  1.
    10030    2    1    2    0    0  0.00000000000E+00  0.00000000000E+00 -0.63373382198E+03  0.18193696715E+04  0.17054288154E+04 0.  0.
        2    1    3    3  502    0  0.26042722220E+03  0.78803121965E+03 -0.10807072092E+03  0.83695568696E+03  0.25500000920E-02 0. -1.
       -2    1    3    3    0  502 -0.26042722220E+03 -0.78803121965E+03 -0.52566310105E+03  0.98241398454E+03  0.25500000920E-02 0.  1.
</event>
<event>
 5   0  0.6539134E-05  0.1697282E+04  0.7818609E-02  0.8762916E-01
       -1   -1    0    0    0  501  0.00000000000E+00  0.00000000000E+00  0.58650924524E+03  0.58650924526E+03  0.50400001928E-02 0.  1.
        1   -1    0    0  501    0  0.00000000000E+00  0.00000000000E+00 -0.12279290258E+04  0.12279290258E+04  0.50400001928E-02 0. -1.
    10030    2    1    2    0    0  0.00000000000E+00  0.00000000000E+00 -0.64141978056E+03  0.18144382711E+04  0.16972822113E+04 0.  0.
        2    1    3    3  502    0  0.84417569043E+03 -0.77163845666E+02 -0.36353595512E+03  0.92235852361E+03  0.25500000920E-02 0. -1.
       -2    1    3    3    0  502 -0.84417569043E+03  0.77163845666E+02 -0.27788382544E+03  0.89207974747E+03  0.25500000920E-02 0.  1.
</event>
<event>
 5   0  0.6539134E-05  0.1700579E+04  0.7818609E-02  0.8761034E-01
       -1   -1    0    0    0  501  0.00000000000E+00  0.00000000000E+00  0.11321708047E+04  0.11321708047E+04  0.50400001928E-02 0.  1.
        1   -1    0    0  501    0  0.00000000000E+00  0.00000000000E+00 -0.63858911122E+03  0.63858911124E+03  0.50400001928E-02 0. -1.
    10030    2    1    2    0    0  0.00000000000E+00  0.00000000000E+00  0.49358169346E+03  0.17707599159E+04  0.17005786638E+04 0.  0.
        2    1    3    3  502    0  0.61434196854E+03 -0.27298358459E+02  0.85824783681E+03  0.10558175051E+04  0.25500000920E-02 0.  1.
       -2    1    3    3    0  502 -0.61434196854E+03  0.27298358459E+02 -0.36466614334E+03  0.71494241082E+03  0.25500000920E-02 0. -1.
</event>
<event>
 5   0  0.6564887E-05  0.1697784E+04  0.7818609E-02  0.8762629E-01
       -1   -1    0    0    0  501  0.00000000000E+00  0.00000000000E+00  0.52248451539E+03  0.52248451541E+03  0.50400001928E-02 0.  1.
        1   -1    0    0  501    0  0.00000000000E+00  0.00000000000E+00 -0.13792133347E+04  0.13792133347E+04  0.50400001928E-02 0. -1.
    10030    2    1    2    0    0  0.00000000000E+00  0.00000000000E+00 -0.85672881929E+03  0.19016978501E+04  0.16977839802E+04 0.  0.
        4    1    3    3  502    0  0.13824343951E+02  0.11797347074E+03  0.51312917154E+03  0.52669916638E+03  0.12699999809E+01 0.  1.
       -4    1    3    3    0  502 -0.13824343951E+02 -0.11797347074E+03 -0.13698579908E+04  0.13749986837E+04  0.12699999809E+01 0. -1.
</event>
<event>
 5   0  0.6834837E-05  0.1697989E+04  0.7818609E-02  0.8762512E-01
        1   -1    0    0  501    0  0.00000000000E+00  0.00000000000E+00  0.74651690124E+03  0.74651690126E+03  0.50400001928E-02 0.  1.
       -1   -1    0    0    0  501  0.00000000000E+00  0.00000000000E+00 -0.96553955971E+03  0.96553955972E+03  0.50400001928E-02 0. -1.
    10030    2    1    2    0    0  0.00000000000E+00  0.00000000000E+00 -0.21902265847E+03  0.17120564610E+04  0.16979889283E+04 0.  0.
        5    1    3    3  502    0  0.67922011879E+03 -0.48293469889E+03 -0.27272775019E+03  0.87690843815E+03  0.46999998093E+01 0. -1.
       -5    1    3    3    0  502 -0.67922011879E+03  0.48293469889E+03  0.53705091723E+02  0.83514802284E+03  0.46999998093E+01 0.  1.
</event>
<event>
 5   0  0.6834837E-05  0.1698681E+04  0.7818609E-02  0.8762117E-01
        1   -1    0    0  501    0  0.00000000000E+00  0.00000000000E+00  0.64269648817E+03  0.64269648819E+03  0.50400001928E-02 0.  1.
       -1   -1    0    0    0  501  0.00000000000E+00  0.00000000000E+00 -0.11224260785E+04  0.11224260785E+04  0.50400001928E-02 0. -1.
    10030    2    1    2    0    0  0.00000000000E+00  0.00000000000E+00 -0.47972959036E+03  0.17651225667E+04  0.16986810165E+04 0.  0.
        5    1    3    3  502    0  0.36550244742E+02  0.82417015108E+03 -0.44966502593E+03  0.93958133435E+03  0.46999998093E+01 0. -1.
       -5    1    3    3    0  502 -0.36550244742E+02 -0.82417015108E+03 -0.30064564434E+02  0.82554123238E+03  0.46999998093E+01 0.  1.
</event>
<event>
 5   0  0.1393870E-04  0.1700121E+04  0.7818609E-02  0.8761295E-01
        2   -1    0    0  501    0  0.00000000000E+00  0.00000000000E+00  0.10064240252E+04  0.10064240252E+04  0.25500000920E-02 0.  1.
       -2   -1    0    0    0  501  0.00000000000E+00  0.00000000000E+00 -0.71799055472E+03  0.71799055473E+03  0.25500000920E-02 0. -1.
    10030    2    1    2    0    0  0.00000000000E+00  0.00000000000E+00  0.28843347044E+03  0.17244145799E+04  0.17001211064E+04 0.  0.
        3    1    3    3  502    0  0.29695575088E+03 -0.79320748048E+03  0.21765372122E+03  0.87449069614E+03  0.10100000352E+00 0.  1.
       -3    1    3    3    0  502 -0.29695575088E+03  0.79320748048E+03  0.70779749220E+02  0.84992388375E+03  0.10100000352E+00 0. -1.
</event>
<event>
 5   0  0.1393870E-04  0.1701113E+04  0.7818609E-02  0.8760730E-01
       -2   -1    0    0    0  501  0.00000000000E+00  0.00000000000E+00  0.61990408024E+03  0.61990408025E+03  0.25500000920E-02 0.  1.
        2   -1    0    0  501    0  0.00000000000E+00  0.00000000000E+00 -0.11670290018E+04  0.11670290018E+04  0.25500000920E-02 0. -1.
    10030    2    1    2    0    0  0.00000000000E+00  0.00000000000E+00 -0.54712492158E+03  0.17869330821E+04  0.17011126241E+04 0.  0.
        3    1    3    3  502    0 -0.56843719962E+03  0.60079117875E+03 -0.65119960510E+02  0.82964541211E+03  0.10100000352E+00 0.  1.
       -3    1    3    3    0  502  0.56843719962E+03 -0.60079117875E+03 -0.48200496107E+03  0.95728766997E+03  0.10100000352E+00 0. -1.
</event>
<event>
 5   0  0.4720875E-05  0.1729258E+04  0.7818609E-02  0.8744851E-01
       -3   -1    0    0    0  501  0.00000000000E+00  0.00000000000E+00  0.81187209970E+03  0.81187210598E+03  0.10100000352E+00 0.  1.
        3   -1    0    0  501    0  0.00000000000E+00  0.00000000000E+00 -0.92081429677E+03  0.92081430231E+03  0.10100000352E+00 0. -1.
    10030    2    1    2    0    0  0.00000000000E+00  0.00000000000E+00 -0.10894219707E+03  0.17326864083E+04  0.17292581609E+04 0.  0.
        2    1    3    3  502    0  0.79292812068E+03 -0.31920927097E+03 -0.18493631302E+03  0.87454616981E+03  0.25500000920E-02 0. -1.
       -2    1    3    3    0  502 -0.79292812068E+03  0.31920927097E+03  0.75994115945E+02  0.85814023849E+03  0.25500000920E-02 0.  1.
</event>
<event>
 5   0  0.1255362E-04  0.1698353E+04  0.7818609E-02  0.8762305E-01
        2   -1    0    0  501    0  0.00000000000E+00  0.00000000000E+00  0.86081463959E+03  0.86081463959E+03  0.25500000920E-02 0. -1.
       -2   -1    0    0    0  501  0.00000000000E+00  0.00000000000E+00 -0.83769525007E+03  0.83769525007E+03  0.25500000920E-02 0.  1.
    10030    2    1    2    0    0  0.00000000000E+00  0.00000000000E+00  0.23119389522E+02  0.16985098897E+04  0.16983525368E+04 0.  0.
        1    1    3    3  502    0 -0.37742901624E+03 -0.33839284322E+03  0.69289952565E+03  0.85852905094E+03  0.50400001928E-02 0. -1.
       -1    1    3    3    0  502  0.37742901624E+03  0.33839284322E+03 -0.66978013613E+03  0.83998083872E+03  0.50400001928E-02 0.  1.
</event>
<event>
 5   0  0.6539134E-05  0.1703620E+04  0.7818609E-02  0.8759302E-01
       -1   -1    0    0    0  501  0.00000000000E+00  0.00000000000E+00  0.77113015393E+03  0.77113015394E+03  0.50400001928E-02 0. -1.
        1   -1    0    0  501    0  0.00000000000E+00  0.00000000000E+00 -0.94093110570E+03  0.94093110571E+03  0.50400001928E-02 0.  1.
    10030    2    1    2    0    0  0.00000000000E+00  0.00000000000E+00 -0.16980095177E+03  0.17120612597E+04  0.17036200849E+04 0.  0.
        2    1    3    3  502    0  0.61905661986E+03 -0.33366511115E+02  0.50214794292E+03  0.79780760791E+03  0.25500000920E-02 0. -1.
       -2    1    3    3    0  502 -0.61905661986E+03  0.33366511115E+02 -0.67194889469E+03  0.91425365175E+03  0.25500000920E-02 0.  1.
</event>
<event>
 5   0  0.1393870E-04  0.1693275E+04  0.7818609E-02  0.8765209E-01
        2   -1    0    0  501    0  0.00000000000E+00  0.00000000000E+00  0.11407041223E+04  0.11407041223E+04  0.25500000920E-02 0. -1.
       -2   -1    0    0    0  501  0.00000000000E+00  0.00000000000E+00 -0.62837949343E+03  0.62837949343E+03  0.25500000920E-02 0.  1.
    10030    2    1    2    0    0  0.00000000000E+00  0.00000000000E+00  0.51232462887E+03  0.17690836157E+04  0.16932750261E+04 0.  0.
        3    1    3    3  502    0  0.97824221319E+02  0.51218725666E+02  0.11331486644E+04  0.11385160702E+04  0.10100000352E+00 0. -1.
       -3    1    3    3    0  502 -0.97824221319E+02 -0.51218725666E+02 -0.62082403558E+03  0.63056754554E+03  0.10100000352E+00 0.  1.
</event>
<event>
 5   0  0.1285639E-04  0.1696644E+04  0.7818609E-02  0.8763281E-01
        2   -1    0    0  501    0  0.00000000000E+00  0.00000000000E+00  0.21863769419E+04  0.21863769419E+04  0.25500000920E-02 0. -1.
       -2   -1    0    0    0  501  0.00000000000E+00  0.00000000000E+00 -0.32915204184E+03  0.32915204185E+03  0.25500000920E-02 0.  1.
    10030    2    1    2    0    0  0.00000000000E+00  0.00000000000E+00  0.18572249000E+04  0.25155289837E+04  0.16966442581E+04 0.  0.
        4    1    3    3  502    0  0.27816432032E+03  0.13907309980E+03 -0.24158430990E+03  0.39380364127E+03  0.12699999809E+01 0.  1.
       -4    1    3    3    0  502 -0.27816432032E+03 -0.13907309980E+03  0.20988092099E+04  0.21217253425E+04  0.12699999809E+01 0. -1.
</event>
<event>
 5   0  0.1333546E-04  0.1710292E+04  0.7818609E-02  0.8755516E-01
       -2   -1    0    0    0  501  0.00000000000E+00  0.00000000000E+00  0.71814496608E+03  0.71814496609E+03  0.25500000920E-02 0.  1.
        2   -1    0    0  501    0  0.00000000000E+00  0.00000000000E+00 -0.10182824688E+04  0.10182824688E+04  0.25500000920E-02 0. -1.
    10030    2    1    2    0    0  0.00000000000E+00  0.00000000000E+00 -0.30013750275E+03  0.17364274349E+04  0.17102917050E+04 0.  0.
        5    1    3    3  502    0 -0.11085843405E+03 -0.14361882876E+03 -0.99850415550E+03  0.10148638327E+04  0.46999998093E+01 0. -1.
       -5    1    3    3    0  502  0.11085843405E+03  0.14361882876E+03  0.69836665275E+03  0.72156360222E+03  0.46999998093E+01 0.  1.
</event>
<event>
 5   0  0.6601906E-05  0.1698547E+04  0.7818609E-02  0.8762193E-01
       -1   -1    0    0    0  501  0.00000000000E+00  0.00000000000E+00  0.13328691807E+04  0.13328691807E+04  0.50400001928E-02 0. -1.
        1   -1    0    0  501    0  0.00000000000E+00  0.00000000000E+00 -0.54113753887E+03  0.54113753889E+03  0.50400001928E-02 0.  1.
    10030    2    1    2    0    0  0.00000000000E+00  0.00000000000E+00  0.79173164182E+03  0.18740067196E+04  0.16985470828E+04 0.  0.
        1    1    3    3  502    0  0.25466099868E+03  0.81988577782E+02 -0.49343162532E+03  0.56129236590E+03  0.50400001928E-02 0.  1.
       -1    1    3    3    0  502 -0.25466099868E+03 -0.81988577782E+02  0.12851632671E+04  0.13127143537E+04  0.50400001928E-02 0. -1.
</event>
<event>
 5   0  0.6615842E-05  0.1701751E+04  0.7818609E-02  0.8760366E-01
       -1   -1    0    0    0  501  0.00000000000E+00  0.00000000000E+00  0.61912141310E+03  0.61912141312E+03  0.50400001928E-02 0.  1.
        1   -1    0    0  501    0  0.00000000000E+00  0.00000000000E+00 -0.11693814497E+04  0.11693814498E+04  0.50400001928E-02 0. -1.
    10030    2    1    2    0    0  0.00000000000E+00  0.00000000000E+00 -0.55026003664E+03  0.17885028629E+04  0.17017509755E+04 0.  0.
        3    1    3    3  502    0 -0.35199747983E+02 -0.30392447878E+02 -0.11680447764E+04  0.11689702019E+04  0.10100000352E+00 0. -1.
       -3    1    3    3    0  502  0.35199747983E+02  0.30392447878E+02  0.61778473974E+03  0.61953266096E+03  0.10100000352E+00 0.  1.
</event>
<event>
 5   0  0.6564887E-05  0.1696593E+04  0.7818609E-02  0.8763310E-01
       -1   -1    0    0    0  501  0.00000000000E+00  0.00000000000E+00  0.58252770402E+03  0.58252770404E+03  0.50400001928E-02 0.  1.
        1   -1    0    0  501    0  0.00000000000E+00  0.00000000000E+00 -0.12353179711E+04  0.12353179711E+04  0.50400001928E-02 0. -1.
    10030    2    1    2    0    0  0.00000000000E+00  0.00000000000E+00 -0.65279026704E+03  0.18178456751E+04  0.16965929877E+04 0.  0.
        4    1    3    3  502    0 -0.47252652809E+03  0.46867689847E+02  0.42678494505E+03  0.63845509029E+03  0.12699999809E+01 0.  1.
       -4    1    3    3    0  502  0.47252652809E+03 -0.46867689847E+02 -0.10795752121E+04  0.11793905848E+04  0.12699999809E+01 0. -1.
</event>
<event>
 5   0  0.6834837E-05  0.1707811E+04  0.7818609E-02  0.8756922E-01
       -1   -1    0    0    0  501  0.00000000000E+00  0.00000000000E+00  0.52244114400E+03  0.52244114403E+03  0.50400001928E-02 0.  1.
        1   -1    0    0  501    0  0.00000000000E+00  0.00000000000E+00 -0.13956677980E+04  0.13956677980E+04  0.50400001928E-02 0. -1.
    10030    2    1    2    0    0  0.00000000000E+00  0.00000000000E+00 -0.87322665395E+03  0.19181089420E+04  0.17078106230E+04 0.  0.
        5    1    3    3  502    0 -0.70840316224E+03  0.45363613139E+02 -0.96964821764E+03  0.12017207053E+04  0.46999998093E+01 0. -1.
       -5    1    3    3    0  502  0.70840316224E+03 -0.45363613139E+02  0.96421563687E+02  0.71638823665E+03  0.46999998093E+01 0.  1.
</event>
<event>
 5   0  0.1393870E-04  0.1699603E+04  0.7818609E-02  0.8761591E-01
        2   -1    0    0  501    0  0.00000000000E+00  0.00000000000E+00  0.94651324840E+03  0.94651324840E+03  0.25500000920E-02 0.  1.
       -2   -1    0    0    0  501  0.00000000000E+00  0.00000000000E+00 -0.76297127893E+03  0.76297127894E+03  0.25500000920E-02 0. -1.
    10030    2    1    2    0    0  0.00000000000E+00  0.00000000000E+00  0.18354196946E+03  0.17094845273E+04  0.16996028050E+04 0.  0.
        3    1    3    3  502    0  0.29850502597E+03 -0.53131670499E+03  0.68746411776E+03  0.91869995915E+03  0.10100000352E+00 0.  1.
       -3    1    3    3    0  502 -0.29850502597E+03  0.53131670499E+03 -0.50392214830E+03  0.79078456819E+03  0.10100000352E+00 0. -1.
</event>
<event>
 5   0  0.6539134E-05  0.1704287E+04  0.7818609E-02  0.8758923E-01
       -1   -1    0    0    0  501  0.00000000000E+00  0.00000000000E+00  0.69543614443E+03  0.69543614445E+03  0.50400001928E-02 0. -1.
        1   -1    0    0  501    0  0.00000000000E+00  0.00000000000E+00 -0.10441628510E+04  0.10441628510E+04  0.50400001928E-02 0.  1.
    10030    2    1    2    0    0  0.00000000000E+00  0.00000000000E+00 -0.34872670655E+03  0.17395989954E+04  0.17042870501E+04 0.  0.
        2    1    3    3  502    0  0.84714738480E+03 -0.14272317682E+02 -0.26727796612E+03  0.88842551844E+03  0.25500000920E-02 0.  1.
       -2    1    3    3    0  502 -0.84714738480E+03  0.14272317682E+02 -0.81448740437E+02  0.85117347701E+03  0.25500000920E-02 0. -1.
</event>
<event>
 5   0  0.6564887E-05  0.1700119E+04  0.7818609E-02  0.8761296E-01
       -1   -1    0    0    0  501  0.00000000000E+00  0.00000000000E+00  0.47799156616E+03  0.47799156619E+03  0.50400001928E-02 0.  1.
        1   -1    0    0  501    0  0.00000000000E+00  0.00000000000E+00 -0.15117447110E+04  0.15117447110E+04  0.50400001928E-02 0. -1.
    10030    2    1    2    0    0  0.00000000000E+00  0.00000000000E+00 -0.10337531448E+04  0.19897362772E+04  0.17001190806E+04 0.  0.
        4    1    3    3  502    0  0.15973867852E+03  0.47403297904E+03 -0.13212543097E+04  0.14127767957E+04  0.12699999809E+01 0. -1.
       -4    1    3    3    0  502 -0.15973867852E+03 -0.47403297904E+03  0.28750116484E+03  0.57695948152E+03  0.12699999809E+01 0.  1.
</event>
<event>
 5   0  0.6615842E-05  0.1697645E+04  0.7818609E-02  0.8762708E-01
       -1   -1    0    0    0  501  0.00000000000E+00  0.00000000000E+00  0.51717084674E+03  0.51717084676E+03  0.50400001928E-02 0. -1.
        1   -1    0    0  501    0  0.00000000000E+00  0.00000000000E+00 -0.13931563479E+04  0.13931563479E+04  0.50400001928E-02 0.  1.
    10030    2    1    2    0    0  0.00000000000E+00  0.00000000000E+00 -0.87598550113E+03  0.19103271946E+04  0.16976452493E+04 0.  0.
        3    1    3    3  502    0  0.33147608065E+03 -0.10762232082E+03 -0.13089343744E+04  0.13545361430E+04  0.10100000352E+00 0.  1.
       -3    1    3    3    0  502 -0.33147608065E+03  0.10762232082E+03  0.43294887329E+03  0.55579105162E+03  0.10100000352E+00 0. -1.
</event>
<event>
 5   0  0.6564887E-05  0.1679621E+04  0.7818609E-02  0.8773073E-01
       -1   -1    0    0    0  501  0.00000000000E+00  0.00000000000E+00  0.56537998316E+03  0.56537998318E+03  0.50400001928E-02 0. -1.
        1   -1    0    0  501    0  0.00000000000E+00  0.00000000000E+00 -0.12474477391E+04  0.12474477391E+04  0.50400001928E-02 0.  1.
    10030    2    1    2    0    0  0.00000000000E+00  0.00000000000E+00 -0.68206775597E+03  0.18128277223E+04  0.16796213642E+04 0.  0.
        4    1    3    3  502    0 -0.39661184479E+03 -0.51269811050E+02  0.45601164937E+03  0.60652929543E+03  0.12699999809E+01 0. -1.
       -4    1    3    3    0  502  0.39661184479E+03  0.51269811050E+02 -0.11380794053E+04  0.12062984269E+04  0.12699999809E+01 0.  1.
</event>
<event>
 5   0  0.1269175E-04  0.1698654E+04  0.7818609E-02  0.8762133E-01
       -2   -1    0    0    0  501  0.00000000000E+00  0.00000000000E+00  0.41443453878E+03  0.41443453879E+03  0.25500000920E-02 0.  1.
        2   -1    0    0  501    0  0.00000000000E+00  0.00000000000E+00 -0.17405788503E+04  0.17405788503E+04  0.25500000920E-02 0. -1.
    10030    2    1    2    0    0  0.00000000000E+00  0.00000000000E+00 -0.13261443115E+04  0.21550133891E+04  0.16986535763E+04 0.  0.
        2    1    3    3  502    0 -0.24792011303E+03 -0.75712455723E+03 -0.28961610437E+03  0.84769066618E+03  0.25500000920E-02 0.  1.
       -2    1    3    3    0  502  0.24792011303E+03  0.75712455723E+03 -0.10365282071E+04  0.13073227229E+04  0.25500000920E-02 0. -1.
</event>
<event>
 5   0  0.1333546E-04  0.1698591E+04  0.7818609E-02  0.8762168E-01
       -2   -1    0    0    0  501  0.00000000000E+00  0.00000000000E+00  0.76395719005E+03  0.76395719006E+03  0.25500000920E-02 0.  1.
        2   -1    0    0  501    0  0.00000000000E+00  0.00000000000E+00 -0.94416651394E+03  0.94416651394E+03  0.25500000920E-02 0. -1.
    10030    2    1    2    0    0  0.00000000000E+00  0.00000000000E+00 -0.18020932389E+03  0.17081237040E+04  0.16985909419E+04 0.  0.
        5    1    3    3  502    0  0.47083525173E+03  0.23836050262E+03 -0.75925560391E+03  0.92465816686E+03  0.46999998093E+01 0. -1.
       -5    1    3    3    0  502 -0.47083525173E+03 -0.23836050262E+03  0.57904628002E+03  0.78346553714E+03  0.46999998093E+01 0.  1.
</event>
<event>
 5   0  0.1393870E-04  0.1694903E+04  0.7818609E-02  0.8764277E-01
        2   -1    0    0  501    0  0.00000000000E+00  0.00000000000E+00  0.53110831713E+03  0.53110831714E+03  0.25500000920E-02 0.  1.
       -2   -1    0    0    0  501  0.00000000000E+00  0.00000000000E+00 -0.13522176460E+04  0.13522176460E+04  0.25500000920E-02 0. -1.
    10030    2    1    2    0    0  0.00000000000E+00  0.00000000000E+00 -0.82110932889E+03  0.18833259632E+04  0.16949029924E+04 0.  0.
        3    1    3    3  502    0 -0.50491251274E+03 -0.41025355938E+03  0.19289309692E+03  0.67856641941E+03  0.10100000352E+00 0.  1.
       -3    1    3    3    0  502  0.50491251274E+03  0.41025355938E+03 -0.10140024258E+04  0.12047595438E+04  0.10100000352E+00 0. -1.
</event>
<event>
 5   0  0.1333546E-04  0.1700296E+04  0.7818609E-02  0.8761196E-01
       -2   -1    0    0    0  501  0.00000000000E+00  0.00000000000E+00  0.44821608901E+03  0.44821608902E+03  0.25500000920E-02 0. -1.
        2   -1    0    0  501    0  0.00000000000E+00  0.00000000000E+00 -0.16125065584E+04  0.16125065584E+04  0.25500000920E-02 0.  1.
    10030    2    1    2    0    0  0.00000000000E+00  0.00000000000E+00 -0.11642904694E+04  0.20607226474E+04  0.17002957191E+04 0.  0.
        5    1    3    3  502    0  0.30785829680E+03  0.45941338126E+03 -0.13646857194E+04  0.14724899281E+04  0.46999998093E+01 0.  1.
       -5    1    3    3    0  502 -0.30785829680E+03 -0.45941338126E+03  0.20039525000E+03  0.58823271926E+03  0.46999998093E+01 0. -1.
</event>
<event>
 5   0  0.6564887E-05  0.1704106E+04  0.7818609E-02  0.8759026E-01
       -1   -1    0    0    0  501  0.00000000000E+00  0.00000000000E+00  0.50166511237E+03  0.50166511240E+03  0.50400001928E-02 0. -1.
        1   -1    0    0  501    0  0.00000000000E+00  0.00000000000E+00 -0.14471700551E+04  0.14471700551E+04  0.50400001928E-02 0.  1.
    10030    2    1    2    0    0  0.00000000000E+00  0.00000000000E+00 -0.94550494276E+03  0.19488351675E+04  0.17041064854E+04 0.  0.
        4    1    3    3  502    0 -0.69549778292E+02  0.16463034607E+03 -0.14254929821E+04  0.14366531166E+04  0.12699999809E+01 0.  1.
       -4    1    3    3    0  502  0.69549778292E+02 -0.16463034607E+03  0.47998803933E+03  0.51218205095E+03  0.12699999809E+01 0. -1.
</event>
<event>
 5   0  0.6834837E-05  0.1694416E+04  0.7818609E-02  0.8764555E-01
        1   -1    0    0  501    0  0.00000000000E+00  0.00000000000E+00  0.10335688210E+04  0.10335688210E+04  0.50400001928E-02 0.  1.
       -1   -1    0    0    0  501  0.00000000000E+00  0.00000000000E+00 -0.69444986189E+03  0.69444986191E+03  0.50400001928E-02 0. -1.
    10030    2    1    2    0    0  0.00000000000E+00  0.00000000000E+00  0.33911895910E+03  0.17280186829E+04  0.16944163892E+04 0.  0.
        5    1    3    3  502    0 -0.40695655633E+03  0.59214401181E+03 -0.28822031303E+03  0.77417130423E+03  0.46999998093E+01 0. -1.
       -5    1    3    3    0  502  0.40695655633E+03 -0.59214401181E+03  0.62733927213E+03  0.95384737868E+03  0.46999998093E+01 0.  1.
</event>
<event>
 5   0  0.6615842E-05  0.1719905E+04  0.7818609E-02  0.8750093E-01
        1   -1    0    0  501    0  0.00000000000E+00  0.00000000000E+00  0.10607280350E+04  0.10607280350E+04  0.50400001928E-02 0.  1.
       -1   -1    0    0    0  501  0.00000000000E+00  0.00000000000E+00 -0.69717985316E+03  0.69717985318E+03  0.50400001928E-02 0. -1.
    10030    2    1    2    0    0  0.00000000000E+00  0.00000000000E+00  0.36354818187E+03  0.17579078882E+04  0.17199048994E+04 0.  0.
        3    1    3    3  502    0  0.55434460877E+03 -0.32611412940E+03  0.76523768323E+03  0.99961847357E+03  0.10100000352E+00 0.  1.
       -3    1    3    3    0  502 -0.55434460877E+03  0.32611412940E+03 -0.40168950136E+03  0.75828941465E+03  0.10100000352E+00 0. -1.
</event>
<event>
 5   0  0.6834837E-05  0.1690504E+04  0.7818609E-02  0.8766799E-01
        1   -1    0    0  501    0  0.00000000000E+00  0.00000000000E+00  0.95335904611E+03  0.95335904613E+03  0.50400001928E-02 0.  1.
       -1   -1    0    0    0  501  0.00000000000E+00  0.00000000000E+00 -0.74940406342E+03  0.74940406344E+03  0.50400001928E-02 0. -1.
    10030    2    1    2    0    0  0.00000000000E+00  0.00000000000E+00  0.20395498270E+03  0.17027631096E+04  0.16905042361E+04 0.  0.
        5    1    3    3  502    0 -0.70624661634E+03 -0.25466206687E+03  0.49311289000E+03  0.89823129742E+03  0.46999998093E+01 0.  1.
       -5    1    3    3    0  502  0.70624661634E+03  0.25466206687E+03 -0.28915790730E+03  0.80453181214E+03  0.46999998093E+01 0. -1.
</event>
<event>
 5   0  0.1269175E-04  0.1701308E+04  0.7818609E-02  0.8760619E-01
       -2   -1    0    0    0  501  0.00000000000E+00  0.00000000000E+00  0.11830133314E+04  0.11830133314E+04  0.25500000920E-02 0.  1.
        2   -1    0    0  501    0  0.00000000000E+00  0.00000000000E+00 -0.61166880949E+03  0.61166880950E+03  0.25500000920E-02 0. -1.
    10030    2    1    2    0    0  0.00000000000E+00  0.00000000000E+00  0.57134452192E+03  0.17946821409E+04  0.17013081509E+04 0.  0.
        2    1    3    3  502    0  0.37260429418E+03  0.53489284790E+03 -0.29082723563E+03  0.71381005861E+03  0.25500000920E-02 0. -1.
       -2    1    3    3    0  502 -0.37260429418E+03 -0.53489284790E+03  0.86217175755E+03  0.10808720823E+04  0.25500000920E-02 0.  1.
</event>
<event>
 5   0  0.1393870E-04  0.1698614E+04  0.7818609E-02  0.8762155E-01
        2   -1    0    0  501    0  0.00000000000E+00  0.00000000000E+00  0.20379394790E+04  0.20379394790E+04  0.25500000920E-02 0. -1.
       -2   -1    0    0    0  501  0.00000000000E+00  0.00000000000E+00 -0.35394681844E+03  0.35394681845E+03  0.25500000920E-02 0.  1.
    10030    2    1    2    0    0  0.00000000000E+00  0.00000000000E+00  0.16839926605E+04  0.23918862974E+04  0.16986137816E+04 0.  0.
        3    1    3    3  502    0  0.58968468865E+03 -0.57481790820E+03  0.11346000134E+04  0.14019489507E+04  0.10100000352E+00 0. -1.
       -3    1    3    3    0  502 -0.58968468865E+03  0.57481790820E+03  0.54939264711E+03  0.98993734676E+03  0.10100000352E+00 0.  1.
</event>
<event>
 5   0  0.1393870E-04  0.1700378E+04  0.7818609E-02  0.8761149E-01
       -2   -1    0    0    0  501  0.00000000000E+00  0.00000000000E+00  0.44390561818E+03  0.44390561819E+03  0.25500000920E-02 0. -1.
        2   -1    0    0  501    0  0.00000000000E+00  0.00000000000E+00 -0.16283219506E+04  0.16283219506E+04  0.25500000920E-02 0.  1.
    10030    2    1    2    0    0  0.00000000000E+00  0.00000000000E+00 -0.11844163324E+04  0.20722275688E+04  0.17003779134E+04 0.  0.
        3    1    3    3  502    0  0.77616254598E+03  0.81751575614E+02 -0.18125661617E+03  0.80122755132E+03  0.10100000352E+00 0.  1.
       -3    1    3    3    0  502 -0.77616254598E+03 -0.81751575614E+02 -0.10031597163E+04  0.12710000175E+04  0.10100000352E+00 0. -1.
</event>
<event>
 5   0  0.6539134E-05  0.1702193E+04  0.7818609E-02  0.8760115E-01
       -1   -1    0    0    0  501  0.00000000000E+00  0.00000000000E+00  0.37081297550E+03  0.37081297553E+03  0.50400001928E-02 0.  1.
        1   -1    0    0  501    0  0.00000000000E+00  0.00000000000E+00 -0.19534515237E+04  0.19534515237E+04  0.50400001928E-02 0. -1.
    10030    2    1    2    0    0  0.00000000000E+00  0.00000000000E+00 -0.15826385482E+04  0.23242644993E+04  0.17021929057E+04 0.  0.
        2    1    3    3  502    0 -0.68400393809E+03  0.26136326339E+03 -0.13836694738E+04  0.15654754407E+04  0.25500000920E-02 0.  1.
       -2    1    3    3    0  502  0.68400393809E+03 -0.26136326339E+03 -0.19896907441E+03  0.75878905853E+03  0.25500000920E-02 0. -1.
</event>
<event>
 5   0  0.1285639E-04  0.1694841E+04  0.7818609E-02  0.8764312E-01
        2   -1    0    0  501    0  0.00000000000E+00  0.00000000000E+00  0.82947305786E+03  0.82947305786E+03  0.25500000920E-02 0. -1.
       -2   -1    0    0    0  501  0.00000000000E+00  0.00000000000E+00 -0.86575578800E+03  0.86575578801E+03  0.25500000920E-02 0.  1.
    10030    2    1    2    0    0  0.00000000000E+00  0.00000000000E+00 -0.36282730144E+02  0.16952288459E+04  0.16948405245E+04 0.  0.
        4    1    3    3  502    0  0.21745318594E+03 -0.45876534302E+03 -0.69680103150E+03  0.86213967455E+03  0.12699999809E+01 0.  1.
       -4    1    3    3    0  502 -0.21745318594E+03  0.45876534302E+03  0.66051830136E+03  0.83308917132E+03  0.12699999809E+01 0. -1.
</event>
<event>
 5   0  0.1393870E-04  0.1704832E+04  0.7818609E-02  0.8758613E-01
       -2   -1    0    0    0  501  0.00000000000E+00  0.00000000000E+00  0.62653404946E+03  0.62653404946E+03  0.25500000920E-02 0. -1.
        2   -1    0    0  501    0  0.00000000000E+00  0.00000000000E+00 -0.11597344274E+04  0.11597344274E+04  0.25500000920E-02 0.  1.
    10030    2    1    2    0    0  0.00000000000E+00  0.00000000000E+00 -0.53320037795E+03  0.17862684769E+04  0.17048320822E+04 0.  0.
        3    1    3    3  502    0  0.71875240082E+02  0.27140986534E+03 -0.11098963886E+04  0.11448577941E+04  0.10100000352E+00 0.  1.
       -3    1    3    3    0  502 -0.71875240082E+02 -0.27140986534E+03  0.57669601061E+03  0.64141068279E+03  0.10100000352E+00 0. -1.
</event>
<event>
 5   0  0.1393870E-04  0.1694732E+04  0.7818609E-02  0.8764374E-01
       -2   -1    0    0    0  501  0.00000000000E+00  0.00000000000E+00  0.90349276802E+03  0.90349276803E+03  0.25500000920E-02 0. -1.
        2   -1    0    0  501    0  0.00000000000E+00  0.00000000000E+00 -0.79472637919E+03  0.79472637919E+03  0.25500000920E-02 0.  1.
    10030    2    1    2    0    0  0.00000000000E+00  0.00000000000E+00  0.10876638884E+03  0.16982191472E+04  0.16947324699E+04 0.  0.
        3    1    3    3  502    0  0.48270477914E+03  0.63660202228E+03 -0.22862215827E+03  0.83098383861E+03  0.10100000352E+00 0.  1.
       -3    1    3    3    0  502 -0.48270477914E+03 -0.63660202228E+03  0.33738854711E+03  0.86723530861E+03  0.10100000352E+00 0. -1.
</event>
<event>
 5   0  0.1393870E-04  0.1694163E+04  0.7818609E-02  0.8764700E-01
       -2   -1    0    0    0  501  0.00000000000E+00  0.00000000000E+00  0.32167142218E+03  0.32167142219E+03  0.25500000920E-02 0.  1.
        2   -1    0    0  501    0  0.00000000000E+00  0.00000000000E+00 -0.22306844980E+04  0.22306844980E+04  0.25500000920E-02 0. -1.
    10030    2    1    2    0    0  0.00000000000E+00  0.00000000000E+00 -0.19090130758E+04  0.25523559202E+04  0.16941634572E+04 0.  0.
        3    1    3    3  502    0  0.38224312307E+03  0.14435524302E+03  0.16339541582E+03  0.44005262575E+03  0.10100000352E+00 0.  1.
       -3    1    3    3    0  502 -0.38224312307E+03 -0.14435524302E+03 -0.20724084916E+04  0.21123032945E+04  0.10100000352E+00 0. -1.
</event>
<event>
 5   0  0.1333546E-04  0.1701071E+04  0.7818609E-02  0.8760754E-01
        2   -1    0    0  501    0  0.00000000000E+00  0.00000000000E+00  0.62342795444E+03  0.62342795444E+03  0.25500000920E-02 0.  1.
       -2   -1    0    0    0  501  0.00000000000E+00  0.00000000000E+00 -0.11603757196E+04  0.11603757196E+04  0.25500000920E-02 0. -1.
    10030    2    1    2    0    0  0.00000000000E+00  0.00000000000E+00 -0.53694776517E+03  0.17838036740E+04  0.17010710288E+04 0.  0.
        5    1    3    3  502    0  0.17246111512E+03 -0.24273180430E+03 -0.11039193256E+04  0.11433816215E+04  0.46999998093E+01 0. -1.
       -5    1    3    3    0  502 -0.17246111512E+03  0.24273180430E+03  0.56697156041E+03  0.64042205253E+03  0.46999998093E+01 0.  1.
</event>
<event>
 5   0  0.6615842E-05  0.1697435E+04  0.7818609E-02  0.8762828E-01
        1   -1    0    0  501    0  0.00000000000E+00  0.00000000000E+00  0.18000644860E+04  0.18000644860E+04  0.50400001928E-02 0.  1.
       -1   -1    0    0    0  501  0.00000000000E+00  0.00000000000E+00 -0.40016441555E+03  0.40016441558E+03  0.50400001928E-02 0. -1.
    10030    2    1    2    0    0  0.00000000000E+00  0.00000000000E+00  0.13999000704E+04  0.22002289015E+04  0.16974354221E+04 0.  0.
        3    1    3    3  502    0 -0.84305419674E+02 -0.28710154330E+02 -0.39409079841E+03  0.40402876672E+03  0.10100000352E+00 0. -1.
       -3    1    3    3    0  502  0.84305419674E+02  0.28710154330E+02  0.17939908688E+04  0.17962001348E+04  0.10100000352E+00 0.  1.
</event>
<event>
 5   0  0.6539134E-05  0.1703044E+04  0.7818609E-02  0.8759630E-01
        1   -1    0    0  501    0  0.00000000000E+00  0.00000000000E+00  0.90296048093E+03  0.90296048094E+03  0.50400001928E-02 0. -1.
       -1   -1    0    0    0  501  0.00000000000E+00  0.00000000000E+00 -0.80301367551E+03  0.80301367552E+03  0.50400001928E-02 0.  1.
    10030    2    1    2    0    0  0.00000000000E+00  0.00000000000E+00  0.99946805423E+02  0.17059741565E+04  0.17030438804E+04 0.  0.
        2    1    3    3  502    0  0.12487007154E+03 -0.50129816613E+03 -0.62809395633E+03  0.81326158407E+03  0.25500000920E-02 0.  1.
       -2    1    3    3    0  502 -0.12487007154E+03  0.50129816613E+03  0.72804076175E+03  0.89271257240E+03  0.25500000920E-02 0. -1.
</event>
<event>
 5   0  0.6564887E-05  0.1636316E+04  0.7818609E-02  0.8798543E-01
       -1   -1    0    0    0  501  0.00000000000E+00  0.00000000000E+00  0.52280094590E+03  0.52280094592E+03  0.50400001928E-02 0.  1.
        1   -1    0    0  501    0  0.00000000000E+00  0.00000000000E+00 -0.12803766497E+04  0.12803766497E+04  0.50400001928E-02 0. -1.
    10030    2    1    2    0    0  0.00000000000E+00  0.00000000000E+00 -0.75757570380E+03  0.18031775956E+04  0.16363155241E+04 0.  0.
        4    1    3    3  502    0 -0.75482784631E+03  0.31202694639E+03 -0.32646301018E+03  0.87960536763E+03  0.12699999809E+01 0. -1.
       -4    1    3    3    0  502  0.75482784631E+03 -0.31202694639E+03 -0.43111269363E+03  0.92357222801E+03  0.12699999809E+01 0.  1.
</event>
<event>
 5   0  0.1393870E-04  0.1703460E+04  0.7818609E-02  0.8759393E-01
        2   -1    0    0  501    0  0.00000000000E+00  0.00000000000E+00  0.47193437255E+03  0.47193437256E+03  0.25500000920E-02 0.  1.
       -2   -1    0    0    0  501  0.00000000000E+00  0.00000000000E+00 -0.15371716449E+04  0.15371716449E+04  0.25500000920E-02 0. -1.
    10030    2    1    2    0    0  0.00000000000E+00  0.00000000000E+00 -0.10652372724E+04  0.20091060175E+04  0.17034601677E+04 0.  0.
        3    1    3    3  502    0 -0.62903440653E+03 -0.13463948298E+03 -0.11910218321E+04  0.13536414184E+04  0.10100000352E+00 0. -1.
       -3    1    3    3    0  502  0.62903440653E+03  0.13463948298E+03  0.12578455969E+03  0.65546459907E+03  0.10100000352E+00 0.  1.
</event>
<event>
 5   0  0.1393870E-04  0.1694547E+04  0.7818609E-02  0.8764481E-01
       -2   -1    0    0    0  501  0.00000000000E+00  0.00000000000E+00  0.56726003382E+03  0.56726003383E+03  0.25500000920E-02 0. -1.
        2   -1    0    0  501    0  0.00000000000E+00  0.00000000000E+00 -0.12655080852E+04  0.12655080852E+04  0.25500000920E-02 0.  1.
    10030    2    1    2    0    0  0.00000000000E+00  0.00000000000E+00 -0.69824805139E+03  0.18327681190E+04  0.16945467349E+04 0.  0.
        3    1    3    3  502    0  0.31174366628E+03  0.32706422429E+03 -0.11243279306E+04  0.12117212658E+04  0.10100000352E+00 0.  1.
       -3    1    3    3    0  502 -0.31174366628E+03 -0.32706422429E+03  0.42607987920E+03  0.62104685325E+03  0.10100000352E+00 0. -1.
</event>
<event>
 5   0  0.1255362E-04  0.1699471E+04  0.7818609E-02  0.8761666E-01
        2   -1    0    0  501    0  0.00000000000E+00  0.00000000000E+00  0.70867057768E+03  0.70867057769E+03  0.25500000920E-02 0.  1.
       -2   -1    0    0    0  501  0.00000000000E+00  0.00000000000E+00 -0.10188797312E+04  0.10188797312E+04  0.25500000920E-02 0. -1.
    10030    2    1    2    0    0  0.00000000000E+00  0.00000000000E+00 -0.31020915348E+03  0.17275503089E+04  0.16994706090E+04 0.  0.
        1    1    3    3  502    0 -0.75997224741E+03  0.53682801599E+02 -0.53763383864E+03  0.93246437170E+03  0.50400001928E-02 0. -1.
       -1    1    3    3    0  502  0.75997224741E+03 -0.53682801599E+02  0.22742468516E+03  0.79508593715E+03  0.50400001928E-02 0.  1.
</event>
<event>
 5   0  0.6601906E-05  0.1701873E+04  0.7818609E-02  0.8760297E-01
       -1   -1    0    0    0  501  0.00000000000E+00  0.00000000000E+00  0.85063049832E+03  0.85063049833E+03  0.50400001928E-02 0.  1.
        1   -1    0    0  501    0  0.00000000000E+00  0.00000000000E+00 -0.85124283064E+03  0.85124283066E+03  0.50400001928E-02 0. -1.
    10030    2    1    2    0    0  0.00000000000E+00  0.00000000000E+00 -0.61233232118E+00  0.17018733290E+04  0.17018732188E+04 0.  0.
        1    1    3    3  502    0  0.69139867843E+03  0.47468926934E+03 -0.14428908509E+03  0.85098846940E+03  0.50400001928E-02 0. -1.
       -1    1    3    3    0  502 -0.69139867843E+03 -0.47468926934E+03  0.14367675277E+03  0.85088485958E+03  0.50400001928E-02 0.  1.
</event>
<event>
 5   0  0.1269175E-04  0.1705016E+04  0.7818609E-02  0.8758509E-01
        2   -1    0    0  501    0  0.00000000000E+00  0.00000000000E+00  0.11385735873E+04  0.11385735873E+04  0.25500000920E-02 0. -1.
       -2   -1    0    0    0  501  0.00000000000E+00  0.00000000000E+00 -0.63831578227E+03  0.63831578228E+03  0.25500000920E-02 0.  1.
    10030    2    1    2    0    0  0.00000000000E+00  0.00000000000E+00  0.50025780507E+03  0.17768893696E+04  0.17050155308E+04 0.  0.
        2    1    3    3  502    0 -0.11411485770E+03 -0.69042262997E+03  0.75754558929E+03  0.10313006005E+04  0.25500000920E-02 0. -1.
       -2    1    3    3    0  502  0.11411485770E+03  0.69042262997E+03 -0.25728778422E+03  0.74558876912E+03  0.25500000920E-02 0.  1.
</event>
<event>
 5   0  0.1393870E-04  0.1608109E+04  0.7818609E-02  0.8815582E-01
       -2   -1    0    0    0  501  0.00000000000E+00  0.00000000000E+00  0.32374980547E+03  0.32374980548E+03  0.25500000920E-02 0.  1.
        2   -1    0    0  501    0  0.00000000000E+00  0.00000000000E+00 -0.19969242757E+04  0.19969242757E+04  0.25500000920E-02 0. -1.
    10030    2    1    2    0    0  0.00000000000E+00  0.00000000000E+00 -0.16731744703E+04  0.23206740812E+04  0.16081092573E+04 0.  0.
        3    1    3    3  502    0 -0.20175740355E+03 -0.18264985983E+03  0.25526125511E+03  0.37312911940E+03  0.10100000352E+00 0.  1.
       -3    1    3    3    0  502  0.20175740355E+03  0.18264985983E+03 -0.19284357254E+04  0.19475449618E+04  0.10100000352E+00 0. -1.
</event>
<event>
 5   0  0.6601906E-05  0.1706780E+04  0.7818609E-02  0.8757507E-01
        1   -1    0    0  501    0  0.00000000000E+00  0.00000000000E+00  0.99076781550E+03  0.99076781551E+03  0.50400001928E-02 0.  1.
       -1   -1    0    0    0  501  0.00000000000E+00  0.00000000000E+00 -0.73506071451E+03  0.73506071453E+03  0.50400001928E-02 0. -1.
    10030    2    1    2    0    0  0.00000000000E+00  0.00000000000E+00  0.25570710099E+03  0.17258285300E+04  0.17067800074E+04 0.  0.
        1    1    3    3  502    0 -0.65561568023E+03 -0.18530930225E+03  0.64749860423E+03  0.93990738914E+03  0.50400001928E-02 0.  1.
       -1    1    3    3    0  502  0.65561568023E+03  0.18530930225E+03 -0.39179150324E+03  0.78592114089E+03  0.50400001928E-02 0. -1.
</event>
<event>
 5   0  0.1285639E-04  0.1703530E+04  0.7818609E-02  0.8759353E-01
       -2   -1    0    0    0  501  0.00000000000E+00  0.00000000000E+00  0.38455690261E+03  0.38455690262E+03  0.25500000920E-02 0.  1.
        2   -1    0    0  501    0  0.00000000000E+00  0.00000000000E+00 -0.18865972174E+04  0.18865972174E+04  0.25500000920E-02 0. -1.
    10030    2    1    2    0    0  0.00000000000E+00  0.00000000000E+00 -0.15020403148E+04  0.22711541200E+04  0.17035304311E+04 0.  0.
        4    1    3    3  502    0  0.17193073362E+03 -0.36401918161E+02  0.36012153439E+03  0.40071736828E+03  0.12699999809E+01 0.  1.
       -4    1    3    3    0  502 -0.17193073362E+03  0.36401918161E+02 -0.18621618492E+04  0.18704367518E+04  0.12699999809E+01 0. -1.
</event>
<event>
 5   0  0.4720875E-05  0.1702790E+04  0.7818609E-02  0.8759775E-01
        3   -1    0    0  501    0  0.00000000000E+00  0.00000000000E+00  0.16251360267E+04  0.16251360299E+04  0.10100000352E+00 0.  1.
       -3   -1    0    0    0  501  0.00000000000E+00  0.00000000000E+00 -0.44603880820E+03  0.44603881963E+03  0.10100000352E+00 0. -1.
    10030    2    1    2    0    0  0.00000000000E+00  0.00000000000E+00  0.11790972185E+04  0.20711748495E+04  0.17027903589E+04 0.  0.
        4    1    3    3  502    0 -0.48374592890E+03 -0.11043653909E+03  0.14310828166E+04  0.15146636570E+04  0.12699999809E+01 0.  1.
       -4    1    3    3    0  502  0.48374592890E+03  0.11043653909E+03 -0.25198559806E+03  0.55651119254E+03  0.12699999809E+01 0. -1.
</event>
<event>
 5   0  0.1333546E-04  0.1682874E+04  0.7818609E-02  0.8771192E-01
        2   -1    0    0  501    0  0.00000000000E+00  0.00000000000E+00  0.28648267002E+03  0.28648267003E+03  0.25500000920E-02 0.  1.
       -2   -1    0    0    0  501  0.00000000000E+00  0.00000000000E+00 -0.24714115960E+04  0.24714115960E+04  0.25500000920E-02 0. -1.
    10030    2    1    2    0    0  0.00000000000E+00  0.00000000000E+00 -0.21849289260E+04  0.27578942661E+04  0.16828744371E+04 0.  0.
        5    1    3    3  502    0 -0.26006145987E+03 -0.18167457056E+03 -0.23696320254E+04  0.23907772038E+04  0.46999998093E+01 0. -1.
       -5    1    3    3    0  502  0.26006145987E+03  0.18167457056E+03  0.18470309936E+03  0.36711706227E+03  0.46999998093E+01 0.  1.
</event>
<event>
 5   0  0.1285639E-04  0.1697517E+04  0.7818609E-02  0.8762782E-01
       -2   -1    0    0    0  501  0.00000000000E+00  0.00000000000E+00  0.15982396290E+04  0.15982396290E+04  0.25500000920E-02 0. -1.
        2   -1    0    0  501    0  0.00000000000E+00  0.00000000000E+00 -0.45074010319E+03  0.45074010319E+03  0.25500000920E-02 0.  1.
    10030    2    1    2    0    0  0.00000000000E+00  0.00000000000E+00  0.11474995258E+04  0.20489797322E+04  0.16975166512E+04 0.  0.
        4    1    3    3  502    0  0.15843691715E+03  0.47974295483E+03 -0.24946365391E+03  0.56346187710E+03  0.12699999809E+01 0.  1.
       -4    1    3    3    0  502 -0.15843691715E+03 -0.47974295483E+03  0.13969631797E+04  0.14855178551E+04  0.12699999809E+01 0. -1.
</event>
<event>
 5   0  0.1393870E-04  0.1678789E+04  0.7818609E-02  0.8773555E-01
        2   -1    0    0  501    0  0.00000000000E+00  0.00000000000E+00  0.15625296064E+04  0.15625296064E+04  0.25500000920E-02 0. -1.
       -2   -1    0    0    0  501  0.00000000000E+00  0.00000000000E+00 -0.45092464707E+03  0.45092464708E+03  0.25500000920E-02 0.  1.
    10030    2    1    2    0    0  0.00000000000E+00  0.00000000000E+00  0.11116049594E+04  0.20134542535E+04  0.16787889818E+04 0.  0.
        3    1    3    3  502    0 -0.19362611544E+03  0.72685776523E+03  0.10902305415E+03  0.76006533929E+03  0.10100000352E+00 0.  1.
       -3    1    3    3    0  502  0.19362611544E+03 -0.72685776523E+03  0.10025819052E+04  0.12533889142E+04  0.10100000352E+00 0. -1.
</event>
<event>
 5   0  0.1393870E-04  0.1702293E+04  0.7818609E-02  0.8760058E-01
        2   -1    0    0  501    0  0.00000000000E+00  0.00000000000E+00  0.55161368847E+03  0.55161368848E+03  0.25500000920E-02 0. -1.
       -2   -1    0    0    0  501  0.00000000000E+00  0.00000000000E+00 -0.13133288549E+04  0.13133288549E+04  0.25500000920E-02 0.  1.
    10030    2    1    2    0    0  0.00000000000E+00  0.00000000000E+00 -0.76171516641E+03  0.18649425434E+04  0.17022927760E+04 0.  0.
        3    1    3    3  502    0 -0.79580745051E+03  0.18804252373E+03 -0.12211191887E+03  0.82678946531E+03  0.10100000352E+00 0. -1.
       -3    1    3    3    0  502  0.79580745051E+03 -0.18804252373E+03 -0.63960324754E+03  0.10381530781E+04  0.10100000352E+00 0.  1.
</event>
<event>
 5   0  0.1285639E-04  0.1677811E+04  0.7818609E-02  0.8774122E-01
       -2   -1    0    0    0  501  0.00000000000E+00  0.00000000000E+00  0.10328942025E+04  0.10328942025E+04  0.25500000920E-02 0. -1.
        2   -1    0    0  501    0  0.00000000000E+00  0.00000000000E+00 -0.68135005917E+03  0.68135005918E+03  0.25500000920E-02 0.  1.
    10030    2    1    2    0    0  0.00000000000E+00  0.00000000000E+00  0.35154414335E+03  0.17142442617E+04  0.16778111050E+04 0.  0.
        4    1    3    3  502    0 -0.34452687258E+02 -0.66918355773E+03 -0.33993308592E+03  0.75136524900E+03  0.12699999809E+01 0.  1.
       -4    1    3    3    0  502  0.34452687258E+02  0.66918355773E+03  0.69147722927E+03  0.96287901270E+03  0.12699999809E+01 0. -1.
</event>
<event>
 5   0  0.1393870E-04  0.1704907E+04  0.7818609E-02  0.8758571E-01
        2   -1    0    0  501    0  0.00000000000E+00  0.00000000000E+00  0.90135944801E+03  0.90135944802E+03  0.25500000920E-02 0. -1.
       -2   -1    0    0    0  501  0.00000000000E+00  0.00000000000E+00 -0.80620071130E+03  0.80620071131E+03  0.25500000920E-02 0.  1.
    10030    2    1    2    0    0  0.00000000000E+00  0.00000000000E+00  0.95158736709E+02  0.17075601593E+04  0.17049065994E+04 0.  0.
        3    1    3    3  502    0 -0.73496014362E+03 -0.13516400156E+02 -0.38474917948E+03  0.82968731887E+03  0.10100000352E+00 0.  1.
       -3    1    3    3    0  502  0.73496014362E+03  0.13516400156E+02  0.47990791619E+03  0.87787284045E+03  0.10100000352E+00 0. -1.
</event>
<event>
 5   0  0.6834837E-05  0.1696078E+04  0.7818609E-02  0.8763604E-01
        1   -1    0    0  501    0  0.00000000000E+00  0.00000000000E+00  0.16411350303E+04  0.16411350303E+04  0.50400001928E-02 0.  1.
       -1   -1    0    0    0  501  0.00000000000E+00  0.00000000000E+00 -0.43821517551E+03  0.43821517554E+03  0.50400001928E-02 0. -1.
    10030    2    1    2    0    0  0.00000000000E+00  0.00000000000E+00  0.12029198548E+04  0.20793502059E+04  0.16960781531E+04 0.  0.
        5    1    3    3  502    0  0.12258404023E+03  0.71087831980E+03  0.54870960157E+02  0.72346924244E+03  0.46999998093E+01 0. -1.
       -5    1    3    3    0  502 -0.12258404023E+03 -0.71087831980E+03  0.11480488946E+04  0.13558809634E+04  0.46999998093E+01 0.  1.
</event>
<event>
 5   0  0.1255362E-04  0.1699406E+04  0.7818609E-02  0.8761703E-01
       -2   -1    0    0    0  501  0.00000000000E+00  0.00000000000E+00  0.10631947036E+04  0.10631947037E+04  0.25500000920E-02 0.  1.
        2   -1    0    0  501    0  0.00000000000E+00  0.00000000000E+00 -0.67908105975E+03  0.67908105976E+03  0.25500000920E-02 0. -1.
    10030    2    1    2    0    0  0.00000000000E+00  0.00000000000E+00  0.38411364390E+03  0.17422757634E+04  0.16994062329E+04 0.  0.
        1    1    3    3  502    0  0.66242348027E+03 -0.35667936247E+03  0.59695023684E+03  0.96040336324E+03  0.50400001928E-02 0.  1.
       -1    1    3    3    0  502 -0.66242348027E+03  0.35667936247E+03 -0.21283659295E+03  0.78187240017E+03  0.50400001928E-02 0. -1.
</event>
<event>
 5   0  0.6615842E-05  0.1733875E+04  0.7818609E-02  0.8742277E-01
       -1   -1    0    0    0  501  0.00000000000E+00  0.00000000000E+00  0.35737235303E+03  0.35737235307E+03  0.50400001928E-02 0. -1.
        1   -1    0    0  501    0  0.00000000000E+00  0.00000000000E+00 -0.21030742653E+04  0.21030742653E+04  0.50400001928E-02 0.  1.
    10030    2    1    2    0    0  0.00000000000E+00  0.00000000000E+00 -0.17457019123E+04  0.24604466184E+04  0.17338749653E+04 0.  0.
        3    1    3    3  502    0 -0.76211188139E+03  0.10425987795E+03 -0.30541755228E+03  0.82762584140E+03  0.10100000352E+00 0. -1.
       -3    1    3    3    0  502  0.76211188139E+03 -0.10425987795E+03 -0.14402843600E+04  0.16328207770E+04  0.10100000352E+00 0.  1.
</event>
<event>
 5   0  0.1285639E-04  0.1701785E+04  0.7818609E-02  0.8760347E-01
       -2   -1    0    0    0  501  0.00000000000E+00  0.00000000000E+00  0.75012525924E+03  0.75012525924E+03  0.25500000920E-02 0. -1.
        2   -1    0    0  501    0  0.00000000000E+00  0.00000000000E+00 -0.96519670581E+03  0.96519670582E+03  0.25500000920E-02 0.  1.
    10030    2    1    2    0    0  0.00000000000E+00  0.00000000000E+00 -0.21507144657E+03  0.17153219651E+04  0.17017854497E+04 0.  0.
        4    1    3    3  502    0 -0.27301966085E+03 -0.57565624363E+03 -0.67602281658E+03  0.92893934543E+03  0.12699999809E+01 0.  1.
       -4    1    3    3    0  502  0.27301966085E+03  0.57565624363E+03  0.46095137001E+03  0.78638261963E+03  0.12699999809E+01 0. -1.
</event>
<event>
 5   0  0.1285639E-04  0.1699400E+04  0.7818609E-02  0.8761707E-01
       -2   -1    0    0    0  501  0.00000000000E+00  0.00000000000E+00  0.47503556405E+03  0.47503556405E+03  0.25500000920E-02 0. -1.
        2   -1    0    0  501    0  0.00000000000E+00  0.00000000000E+00 -0.15198648637E+04  0.15198648637E+04  0.25500000920E-02 0.  1.
    10030    2    1    2    0    0  0.00000000000E+00  0.00000000000E+00 -0.10448292997E+04  0.19949004278E+04  0.16993997326E+04 0.  0.
        4    1    3    3  502    0  0.30733629897E+03 -0.78318605840E+03 -0.66206382680E+03  0.10705914844E+04  0.12699999809E+01 0.  1.
       -4    1    3    3    0  502 -0.30733629897E+03  0.78318605840E+03 -0.38276547287E+03  0.92430894341E+03  0.12699999809E+01 0. -1.
</event>
<event>
 5   0  0.4720875E-05  0.1713905E+04  0.7818609E-02  0.8753473E-01
        3   -1    0    0  501    0  0.00000000000E+00  0.00000000000E+00  0.75407860253E+03  0.75407860929E+03  0.10100000352E+00 0.  1.
       -3   -1    0    0    0  501  0.00000000000E+00  0.00000000000E+00 -0.97386106891E+03  0.97386107415E+03  0.10100000352E+00 0. -1.
    10030    2    1    2    0    0  0.00000000000E+00  0.00000000000E+00 -0.21978246638E+03  0.17279396834E+04  0.17139052532E+04 0.  0.
        5    1    3    3  502    0 -0.42471274250E+03  0.62577038794E+03  0.29636775751E+03  0.81229639280E+03  0.46999998093E+01 0.  1.
       -5    1    3    3    0  502  0.42471274250E+03 -0.62577038794E+03 -0.51615022389E+03  0.91564329064E+03  0.46999998093E+01 0. -1.
</event>
<event>
 5   0  0.1285639E-04  0.1685573E+04  0.7818609E-02  0.8769636E-01
       -2   -1    0    0    0  501  0.00000000000E+00  0.00000000000E+00  0.48065766051E+03  0.48065766052E+03  0.25500000920E-02 0.  1.
        2   -1    0    0  501    0  0.00000000000E+00  0.00000000000E+00 -0.14777445310E+04  0.14777445310E+04  0.25500000920E-02 0. -1.
    10030    2    1    2    0    0  0.00000000000E+00  0.00000000000E+00 -0.99708687051E+03  0.19584021915E+04  0.16855731715E+04 0.  0.
        4    1    3    3  502    0  0.20318495528E+03 -0.23548973224E+03 -0.14086213507E+04  0.14425516499E+04  0.12699999809E+01 0. -1.
       -4    1    3    3    0  502 -0.20318495528E+03  0.23548973224E+03  0.41153448019E+03  0.51585054165E+03  0.12699999809E+01 0.  1.
</event>
<event>
 5   0  0.1255362E-04  0.1685249E+04  0.7818609E-02  0.8769822E-01
       -2   -1    0    0    0  501  0.00000000000E+00  0.00000000000E+00  0.91322990544E+03  0.91322990544E+03  0.25500000920E-02 0. -1.
        2   -1    0    0  501    0  0.00000000000E+00  0.00000000000E+00 -0.77747805470E+03  0.77747805470E+03  0.25500000920E-02 0.  1.
    10030    2    1    2    0    0  0.00000000000E+00  0.00000000000E+00  0.13575185074E+03  0.16907079601E+04  0.16852491927E+04 0.  0.
        1    1    3    3  502    0 -0.21501730431E+03 -0.75735922379E+03 -0.23341463826E+03  0.82116248598E+03  0.50400001928E-02 0.  1.
       -1    1    3    3    0  502  0.21501730431E+03  0.75735922379E+03  0.36916648900E+03  0.86954547416E+03  0.50400001928E-02 0. -1.
</event>
<event>
 5   0  0.6564887E-05  0.1698923E+04  0.7818609E-02  0.8761979E-01
       -1   -1    0    0    0  501  0.00000000000E+00  0.00000000000E+00  0.46937200891E+03  0.46937200894E+03  0.50400001928E-02 0.  1.
        1   -1    0    0  501    0  0.00000000000E+00  0.00000000000E+00 -0.15373402687E+04  0.15373402687E+04  0.50400001928E-02 0. -1.
    10030    2    1    2    0    0  0.00000000000E+00  0.00000000000E+00 -0.10679682598E+04  0.20067122777E+04  0.16989225884E+04 0.  0.
        4    1    3    3  502    0  0.48267091027E+02  0.14332517863E+03  0.45334130599E+03  0.47790351696E+03  0.12699999809E+01 0.  1.
       -4    1    3    3    0  502 -0.48267091027E+02 -0.14332517863E+03 -0.15213095658E+04  0.15288087607E+04  0.12699999809E+01 0. -1.
</event>
<event>
 5   0  0.6834837E-05  0.1711168E+04  0.7818609E-02  0.8755021E-01
       -1   -1    0    0    0  501  0.00000000000E+00  0.00000000000E+00  0.57606539762E+03  0.57606539764E+03  0.50400001928E-02 0. -1.
        1   -1    0    0  501    0  0.00000000000E+00  0.00000000000E+00 -0.12707300352E+04  0.12707300352E+04  0.50400001928E-02 0.  1.
    10030    2    1    2    0    0  0.00000000000E+00  0.00000000000E+00 -0.69466463758E+03  0.18467954328E+04  0.17111675582E+04 0.  0.
        5    1    3    3  502    0  0.83233469528E+03 -0.12159500406E+03 -0.17862515703E+03  0.85993919942E+03  0.46999998093E+01 0. -1.
       -5    1    3    3    0  502 -0.83233469528E+03  0.12159500406E+03 -0.51603948055E+03  0.98685623343E+03  0.46999998093E+01 0.  1.
</event>
<event>
 5   0  0.1285639E-04  0.1701515E+04  0.7818609E-02  0.8760501E-01
       -2   -1    0    0    0  501  0.00000000000E+00  0.00000000000E+00  0.13857883772E+04  0.13857883772E+04  0.25500000920E-02 0. -1.
        2   -1    0    0  501    0  0.00000000000E+00  0.00000000000E+00 -0.52229348270E+03  0.52229348270E+03  0.25500000920E-02 0.  1.
    10030    2    1    2    0    0  0.00000000000E+00  0.00000000000E+00  0.86349489455E+03  0.19080818600E+04  0.17015148990E+04 0.  0.
        4    1    3    3  502    0 -0.50102903882E+03 -0.68751555462E+03  0.44170770245E+03  0.95854840404E+03  0.12699999809E+01 0.  1.
       -4    1    3    3    0  502  0.50102903882E+03  0.68751555462E+03  0.42178719210E+03  0.94953345591E+03  0.12699999809E+01 0. -1.
</event>
<event>
 5   0  0.1255362E-04  0.1696016E+04  0.7818609E-02  0.8763640E-01
       -2   -1    0    0    0  501  0.00000000000E+00  0.00000000000E+00  0.66307188108E+03  0.66307188108E+03  0.25500000920E-02 0. -1.
        2   -1    0    0  501    0  0.00000000000E+00  0.00000000000E+00 -0.10845248815E+04  0.10845248815E+04  0.25500000920E-02 0.  1.
    10030    2    1    2    0    0  0.00000000000E+00  0.00000000000E+00 -0.42145300038E+03  0.17475967625E+04  0.16960164542E+04 0.  0.
        1    1    3    3  502    0 -0.48639835639E+03  0.32242031309E+03 -0.84472736596E+03  0.10266949607E+04  0.50400001928E-02 0.  1.
       -1    1    3    3    0  502  0.48639835639E+03 -0.32242031309E+03  0.42327436558E+03  0.72090180190E+03  0.50400001928E-02 0. -1.
</event>
<event>
 5   0  0.1269175E-04  0.1679985E+04  0.7818609E-02  0.8772862E-01
       -2   -1    0    0    0  501  0.00000000000E+00  0.00000000000E+00  0.11438326023E+04  0.11438326023E+04  0.25500000920E-02 0.  1.
        2   -1    0    0  501    0  0.00000000000E+00  0.00000000000E+00 -0.61686271211E+03  0.61686271212E+03  0.25500000920E-02 0. -1.
    10030    2    1    2    0    0  0.00000000000E+00  0.00000000000E+00  0.52696989018E+03  0.17606953144E+04  0.16799853348E+04 0.  0.
        2    1    3    3  502    0 -0.37190644421E+03 -0.50391371972E+03 -0.32317924062E+03  0.70476113807E+03  0.25500000920E-02 0. -1.
       -2    1    3    3    0  502  0.37190644421E+03  0.50391371972E+03  0.85014913080E+03  0.10559341763E+04  0.25500000920E-02 0.  1.
</event>
<event>
 5   0  0.1333546E-04  0.1706870E+04  0.7818609E-02  0.8757456E-01
        2   -1    0    0  501    0  0.00000000000E+00  0.00000000000E+00  0.48052236007E+03  0.48052236008E+03  0.25500000920E-02 0. -1.
       -2   -1    0    0    0  501  0.00000000000E+00  0.00000000000E+00 -0.15157484723E+04  0.15157484723E+04  0.25500000920E-02 0.  1.
    10030    2    1    2    0    0  0.00000000000E+00  0.00000000000E+00 -0.10352261122E+04  0.19962708324E+04  0.17068696883E+04 0.  0.
        5    1    3    3  502    0  0.27396713031E+03  0.13826140856E+03 -0.14489711990E+04  0.14811191145E+04  0.46999998093E+01 0.  1.
       -5    1    3    3    0  502 -0.27396713031E+03 -0.13826140856E+03  0.41374508682E+03  0.51515171790E+03  0.46999998093E+01 0. -1.
</event>
<event>
 5   0  0.1269175E-04  0.1699179E+04  0.7818609E-02  0.8761833E-01
        2   -1    0    0  501    0  0.00000000000E+00  0.00000000000E+00  0.15300667716E+04  0.15300667716E+04  0.25500000920E-02 0.  1.
       -2   -1    0    0    0  501  0.00000000000E+00  0.00000000000E+00 -0.47174565527E+03  0.47174565527E+03  0.25500000920E-02 0. -1.
    10030    2    1    2    0    0  0.00000000000E+00  0.00000000000E+00  0.10583211163E+04  0.20018124269E+04  0.16991790391E+04 0.  0.
        2    1    3    3  502    0  0.36038639578E+03  0.66951132194E+02  0.14321165142E+04  0.14782822865E+04  0.25500000920E-02 0.  1.
       -2    1    3    3    0  502 -0.36038639578E+03 -0.66951132194E+02 -0.37379539789E+03  0.52353014035E+03  0.25500000920E-02 0. -1.
</event>
<event>
 5   0  0.6615842E-05  0.1698435E+04  0.7818609E-02  0.8762258E-01
        1   -1    0    0  501    0  0.00000000000E+00  0.00000000000E+00  0.90761466023E+03  0.90761466024E+03  0.50400001928E-02 0.  1.
       -1   -1    0    0    0  501  0.00000000000E+00  0.00000000000E+00 -0.79457723441E+03  0.79457723442E+03  0.50400001928E-02 0. -1.
    10030    2    1    2    0    0  0.00000000000E+00  0.00000000000E+00  0.11303742583E+03  0.17021918947E+04  0.16984345106E+04 0.  0.
        3    1    3    3  502    0 -0.55750615633E+03 -0.22856170112E+03 -0.54323341827E+03  0.81126821859E+03  0.10100000352E+00 0. -1.
       -3    1    3    3    0  502  0.55750615633E+03  0.22856170112E+03  0.65627084410E+03  0.89092367607E+03  0.10100000352E+00 0.  1.
</event>
<event>
 5   0  0.1255362E-04  0.1704631E+04  0.7818609E-02  0.8758728E-01
       -2   -1    0    0    0  501  0.00000000000E+00  0.00000000000E+00  0.12342702627E+04  0.12342702627E+04  0.25500000920E-02 0.  1.
        2   -1    0    0  501    0  0.00000000000E+00  0.00000000000E+00 -0.58855950786E+03  0.58855950787E+03  0.25500000920E-02 0. -1.
    10030    2    1    2    0    0  0.00000000000E+00  0.00000000000E+00  0.64571075484E+03  0.18228297706E+04  0.17046307499E+04 0.  0.
        1    1    3    3  502    0 -0.56012752291E+03 -0.50933614290E+03 -0.95795448837E+02  0.76311396032E+03  0.50400001928E-02 0.  1.
       -1    1    3    3    0  502  0.56012752291E+03  0.50933614290E+03  0.74150620368E+03  0.10597158103E+04  0.50400001928E-02 0. -1.
</event>
<event>
 5   0  0.6539134E-05  0.1698382E+04  0.7818609E-02  0.8762288E-01
       -1   -1    0    0    0  501  0.00000000000E+00  0.00000000000E+00  0.85096339533E+03  0.85096339535E+03  0.50400001928E-02 0. -1.
        1   -1    0    0  501    0  0.00000000000E+00  0.00000000000E+00 -0.84742209036E+03  0.84742209038E+03  0.50400001928E-02 0.  1.
    10030    2    1    2    0    0  0.00000000000E+00  0.00000000000E+00  0.35413049724E+01  0.16983854857E+04  0.16983817937E+04 0.  0.
        2    1    3    3  502    0  0.44474980952E+03  0.63717498097E+03  0.34430727824E+03  0.84990696626E+03  0.25500000920E-02 0. -1.
       -2    1    3    3    0  502 -0.44474980952E+03 -0.63717498097E+03 -0.34076597327E+03  0.84847851946E+03  0.25500000920E-02 0.  1.
</event>
<event>
 5   0  0.6564887E-05  0.1698353E+04  0.7818609E-02  0.8762304E-01
       -1   -1    0    0    0  501  0.00000000000E+00  0.00000000000E+00  0.52206639696E+03  0.52206639699E+03  0.50400001928E-02 0. -1.
        1   -1    0    0  501    0  0.00000000000E+00  0.00000000000E+00 -0.13812435835E+04  0.13812435835E+04  0.50400001928E-02 0.  1.
    10030    2    1    2    0    0  0.00000000000E+00  0.00000000000E+00 -0.85917718656E+03  0.19033099805E+04  0.16983531565E+04 0.  0.
        4    1    3    3  502    0  0.68206271289E+03 -0.31056376169E+03  0.17897935569E+02  0.74965414919E+03  0.12699999809E+01 0. -1.
       -4    1    3    3    0  502 -0.68206271289E+03  0.31056376169E+03 -0.87707512213E+03  0.11536558313E+04  0.12699999809E+01 0.  1.
</event>
<event>
 5   0  0.1393870E-04  0.1702667E+04  0.7818609E-02  0.8759845E-01
        2   -1    0    0  501    0  0.00000000000E+00  0.00000000000E+00  0.11095359929E+04  0.11095359929E+04  0.25500000920E-02 0. -1.
       -2   -1    0    0    0  501  0.00000000000E+00  0.00000000000E+00 -0.65321761319E+03  0.65321761319E+03  0.25500000920E-02 0.  1.
    10030    2    1    2    0    0  0.00000000000E+00  0.00000000000E+00  0.45631837969E+03  0.17627536061E+04  0.17026666767E+04 0.  0.
        3    1    3    3  502    0 -0.63970680563E+03  0.47633143908E+03  0.53641144208E+03  0.96117307620E+03  0.10100000352E+00 0. -1.
       -3    1    3    3    0  502  0.63970680563E+03 -0.47633143908E+03 -0.80093062392E+02  0.80158052987E+03  0.10100000352E+00 0.  1.
</event>
<event>
 5   0  0.1333546E-04  0.1698407E+04  0.7818609E-02  0.8762273E-01
       -2   -1    0    0    0  501  0.00000000000E+00  0.00000000000E+00  0.54181184091E+03  0.54181184092E+03  0.25500000920E-02 0.  1.
        2   -1    0    0  501    0  0.00000000000E+00  0.00000000000E+00 -0.13309912056E+04  0.13309912056E+04  0.25500000920E-02 0. -1.
    10030    2    1    2    0    0  0.00000000000E+00  0.00000000000E+00 -0.78917936468E+03  0.18728030465E+04  0.16984072484E+04 0.  0.
        5    1    3    3  502    0 -0.30452563393E+03  0.59522324882E+03 -0.97189200796E+03  0.11796706077E+04  0.46999998093E+01 0. -1.
       -5    1    3    3    0  502  0.30452563393E+03 -0.59522324882E+03  0.18271264328E+03  0.69313243876E+03  0.46999998093E+01 0.  1.
</event>
<event>
 5   0  0.4720875E-05  0.1689707E+04  0.7818609E-02  0.8767257E-01
       -3   -1    0    0    0  501  0.00000000000E+00  0.00000000000E+00  0.34446924413E+03  0.34446925893E+03  0.10100000352E+00 0.  1.
        3   -1    0    0  501    0  0.00000000000E+00  0.00000000000E+00 -0.20721073913E+04  0.20721073937E+04  0.10100000352E+00 0. -1.
    10030    2    1    2    0    0  0.00000000000E+00  0.00000000000E+00 -0.17276381471E+04  0.24165766527E+04  0.16897068239E+04 0.  0.
        5    1    3    3  502    0  0.60195005747E+03 -0.12532081214E+01 -0.16013779436E+02  0.60218267440E+03  0.46999998093E+01 0.  1.
       -5    1    3    3    0  502 -0.60195005747E+03  0.12532081214E+01 -0.17116243677E+04  0.18143939783E+04  0.46999998093E+01 0. -1.
</event>
<event>
 5   0  0.1333546E-04  0.1682527E+04  0.7818609E-02  0.8771393E-01
        2   -1    0    0  501    0  0.00000000000E+00  0.00000000000E+00  0.13578086927E+04  0.13578086927E+04  0.25500000920E-02 0. -1.
       -2   -1    0    0    0  501  0.00000000000E+00  0.00000000000E+00 -0.52122516398E+03  0.52122516399E+03  0.25500000920E-02 0.  1.
    10030    2    1    2    0    0  0.00000000000E+00  0.00000000000E+00  0.83658352876E+03  0.18790338567E+04  0.16825267410E+04 0.  0.
        5    1    3    3  502    0 -0.60624822720E+03 -0.57265428935E+02  0.10664990905E+04  0.12281118200E+04  0.46999998093E+01 0. -1.
       -5    1    3    3    0  502  0.60624822720E+03  0.57265428935E+02 -0.22991556178E+03  0.65092203671E+03  0.46999998093E+01 0.  1.
</event>
<event>
 5   0  0.1255362E-04  0.1703661E+04  0.7818609E-02  0.8759279E-01
       -2   -1    0    0    0  501  0.00000000000E+00  0.00000000000E+00  0.86767446919E+03  0.86767446919E+03  0.25500000920E-02 0. -1.
        2   -1    0    0  501    0  0.00000000000E+00  0.00000000000E+00 -0.83627564862E+03  0.83627564862E+03  0.25500000920E-02 0.  1.
    10030    2    1    2    0    0  0.00000000000E+00  0.00000000000E+00  0.31398820566E+02  0.17039501178E+04  0.17036607990E+04 0.  0.
        1    1    3    3  502    0  0.66011616101E+03  0.23105041531E+03 -0.47067258102E+03  0.84301264462E+03  0.50400001928E-02 0.  1.
       -1    1    3    3    0  502 -0.66011616101E+03 -0.23105041531E+03  0.50207140158E+03  0.86093747320E+03  0.50400001928E-02 0. -1.
</event>
<event>
 5   0  0.6564887E-05  0.1711366E+04  0.7818609E-02  0.8754909E-01
       -1   -1    0    0    0  501  0.00000000000E+00  0.00000000000E+00  0.36851010392E+03  0.36851010395E+03  0.50400001928E-02 0.  1.
        1   -1    0    0  501    0  0.00000000000E+00  0.00000000000E+00 -0.19869010176E+04  0.19869010176E+04  0.50400001928E-02 0. -1.
    10030    2    1    2    0    0  0.00000000000E+00  0.00000000000E+00 -0.16183909137E+04  0.23554111215E+04  0.17113656541E+04 0.  0.
        4    1    3    3  502    0  0.11485530921E+03  0.84772758760E+03 -0.78316553111E+03  0.11598205322E+04  0.12699999809E+01 0. -1.
       -4    1    3    3    0  502 -0.11485530921E+03 -0.84772758760E+03 -0.83522538256E+03  0.11955905894E+04  0.12699999809E+01 0.  1.
</event>
<event>
 5   0  0.4720875E-05  0.1678850E+04  0.7818609E-02  0.8773520E-01
       -3   -1    0    0    0  501  0.00000000000E+00  0.00000000000E+00  0.31511233129E+03  0.31511234748E+03  0.10100000352E+00 0.  1.
        3   -1    0    0  501    0  0.00000000000E+00  0.00000000000E+00 -0.22361355677E+04  0.22361355700E+04  0.10100000352E+00 0. -1.
    10030    2    1    2    0    0  0.00000000000E+00  0.00000000000E+00 -0.19210232364E+04  0.25512479174E+04  0.16788495053E+04 0.  0.
        2    1    3    3  502    0  0.38094577269E+03 -0.33799572870E+03  0.53526162258E+02  0.51207991993E+03  0.25500000920E-02 0.  1.
       -2    1    3    3    0  502 -0.38094577269E+03  0.33799572870E+03 -0.19745493987E+04  0.20391679975E+04  0.25500000920E-02 0. -1.
</event>
<event>
 5   0  0.1333546E-04  0.1703216E+04  0.7818609E-02  0.8759532E-01
       -2   -1    0    0    0  501  0.00000000000E+00  0.00000000000E+00  0.29219788436E+03  0.29219788438E+03  0.25500000920E-02 0.  1.
        2   -1    0    0  501    0  0.00000000000E+00  0.00000000000E+00 -0.24820030142E+04  0.24820030142E+04  0.25500000920E-02 0. -1.
    10030    2    1    2    0    0  0.00000000000E+00  0.00000000000E+00 -0.21898051298E+04  0.27742008986E+04  0.17032158169E+04 0.  0.
        5    1    3    3  502    0 -0.84794827364E+03  0.17296341538E+02 -0.96980781717E+03  0.12883573768E+04  0.46999998093E+01 0.  1.
       -5    1    3    3    0  502  0.84794827364E+03 -0.17296341538E+02 -0.12199973127E+04  0.14858435218E+04  0.46999998093E+01 0. -1.
</event>
<event>
 5   0  0.1269175E-04  0.1697590E+04  0.7818609E-02  0.8762740E-01
       -2   -1    0    0    0  501  0.00000000000E+00  0.00000000000E+00  0.77614249476E+03  0.77614249477E+03  0.25500000920E-02 0. -1.
        2   -1    0    0  501    0  0.00000000000E+00  0.00000000000E+00 -0.92824788729E+03  0.92824788730E+03  0.25500000920E-02 0.  1.
    10030    2    1    2    0    0  0.00000000000E+00  0.00000000000E+00 -0.15210539253E+03  0.17043903821E+04  0.16975896218E+04 0.  0.
        2    1    3    3  502    0 -0.28452392380E+03  0.74342524083E+03 -0.37188149436E+03  0.87859592406E+03  0.25500000920E-02 0. -1.
       -2    1    3    3    0  502  0.28452392380E+03 -0.74342524083E+03  0.21977610183E+03  0.82579445800E+03  0.25500000920E-02 0.  1.
</event>
<event>
 5   0  0.1393870E-04  0.1690454E+04  0.7818609E-02  0.8766827E-01
       -2   -1    0    0    0  501  0.00000000000E+00  0.00000000000E+00  0.11302591422E+04  0.11302591422E+04  0.25500000920E-02 0.  1.
        2   -1    0    0  501    0  0.00000000000E+00  0.00000000000E+00 -0.63207529896E+03  0.63207529897E+03  0.25500000920E-02 0. -1.
    10030    2    1    2    0    0  0.00000000000E+00  0.00000000000E+00  0.49818384321E+03  0.17623344411E+04  0.16904542410E+04 0.  0.
        3    1    3    3  502    0 -0.11692281809E+03  0.81438530441E+03  0.45101433247E+03  0.93824746614E+03  0.10100000352E+00 0. -1.
       -3    1    3    3    0  502  0.11692281809E+03 -0.81438530441E+03  0.47169510744E+02  0.82408697500E+03  0.10100000352E+00 0.  1.
</event>
<event>
 5   0  0.6601906E-05  0.1709125E+04  0.7818609E-02  0.8756177E-01
       -1   -1    0    0    0  501  0.00000000000E+00  0.00000000000E+00  0.63485580290E+03  0.63485580292E+03  0.50400001928E-02 0. -1.
        1   -1    0    0  501    0  0.00000000000E+00  0.00000000000E+00 -0.11503032151E+04  0.11503032151E+04  0.50400001928E-02 0.  1.
    10030    2    1    2    0    0  0.00000000000E+00  0.00000000000E+00 -0.51544741218E+03  0.17851590180E+04  0.17091245375E+04 0.  0.
        1    1    3    3  502    0  0.57056768941E+01  0.17592192079E+03 -0.11311647477E+04  0.11447771676E+04  0.50400001928E-02 0.  1.
       -1    1    3    3    0  502 -0.57056768941E+01 -0.17592192079E+03  0.61571733556E+03  0.64038185038E+03  0.50400001928E-02 0. -1.
</event>
<event>
 5   0  0.1393870E-04  0.1699520E+04  0.7818609E-02  0.8761638E-01
        2   -1    0    0  501    0  0.00000000000E+00  0.00000000000E+00  0.98271198187E+03  0.98271198187E+03  0.25500000920E-02 0. -1.
       -2   -1    0    0    0  501  0.00000000000E+00  0.00000000000E+00 -0.73479557489E+03  0.73479557489E+03  0.25500000920E-02 0.  1.
    10030    2    1    2    0    0  0.00000000000E+00  0.00000000000E+00  0.24791640698E+03  0.17175075568E+04  0.16995204214E+04 0.  0.
        3    1    3    3  502    0  0.65805914603E+03  0.29442712795E+03 -0.33065084203E+03  0.79313250021E+03  0.10100000352E+00 0. -1.
       -3    1    3    3    0  502 -0.65805914603E+03 -0.29442712795E+03  0.57856724901E+03  0.92437505655E+03  0.10100000352E+00 0.  1.
</event>
<event>
 5   0  0.1333546E-04  0.1710428E+04  0.7818609E-02  0.8755439E-01
        2   -1    0    0  501    0  0.00000000000E+00  0.00000000000E+00  0.28725794296E+04  0.28725794296E+04  0.25500000920E-02 0. -1.
       -2   -1    0    0    0  501  0.00000000000E+00  0.00000000000E+00 -0.25461135810E+03  0.25461135812E+03  0.25500000920E-02 0.  1.
    10030    2    1    2    0    0  0.00000000000E+00  0.00000000000E+00  0.26179680715E+04  0.31271907877E+04  0.17104284257E+04 0.  0.
        5    1    3    3  502    0 -0.67803007612E+03  0.49945946817E+03  0.15813020698E+04  0.17915699458E+04  0.46999998093E+01 0.  1.
       -5    1    3    3    0  502  0.67803007612E+03 -0.49945946817E+03  0.10366660016E+04  0.13356208419E+04  0.46999998093E+01 0. -1.
</event>
<event>
 5   0  0.6601906E-05  0.1703937E+04  0.7818609E-02  0.8759122E-01
       -1   -1    0    0    0  501  0.00000000000E+00  0.00000000000E+00  0.48648019384E+03  0.48648019387E+03  0.50400001928E-02 0. -1.
        1   -1    0    0  501    0  0.00000000000E+00  0.00000000000E+00 -0.14920450252E+04  0.14920450252E+04  0.50400001928E-02 0.  1.
    10030    2    1    2    0    0  0.00000000000E+00  0.00000000000E+00 -0.10055648313E+04  0.19785252191E+04  0.17039370330E+04 0.  0.
        1    1    3    3  502    0 -0.35918458329E+03 -0.46434009126E+03  0.21415091858E+03  0.62488871103E+03  0.50400001928E-02 0. -1.
       -1    1    3    3    0  502  0.35918458329E+03  0.46434009126E+03 -0.12197157499E+04  0.13536365080E+04  0.50400001928E-02 0.  1.
</event>
<event>
 5   0  0.6539134E-05  0.1697929E+04  0.7818609E-02  0.8762546E-01
        1   -1    0    0  501    0  0.00000000000E+00  0.00000000000E+00  0.11498914541E+04  0.11498914541E+04  0.50400001928E-02 0.  1.
       -1   -1    0    0    0  501  0.00000000000E+00  0.00000000000E+00 -0.62679035167E+03  0.62679035169E+03  0.50400001928E-02 0. -1.
    10030    2    1    2    0    0  0.00000000000E+00  0.00000000000E+00  0.52310110243E+03  0.17766818058E+04  0.16979291728E+04 0.  0.
        2    1    3    3  502    0  0.22701474330E+03  0.81621223965E+03  0.20421156090E+03  0.87145882028E+03  0.25500000920E-02 0. -1.
       -2    1    3    3    0  502 -0.22701474330E+03 -0.81621223965E+03  0.31888954153E+03  0.90522298553E+03  0.25500000920E-02 0.  1.
</event>
<event>
 5   0  0.1285639E-04  0.1702713E+04  0.7818609E-02  0.8759818E-01
        2   -1    0    0  501    0  0.00000000000E+00  0.00000000000E+00  0.12981669906E+04  0.12981669906E+04  0.25500000920E-02 0.  1.
       -2   -1    0    0    0  501  0.00000000000E+00  0.00000000000E+00 -0.55833205669E+03  0.55833205669E+03  0.25500000920E-02 0. -1.
    10030    2    1    2    0    0  0.00000000000E+00  0.00000000000E+00  0.73983493389E+03  0.18564990473E+04  0.17027134178E+04 0.  0.
        4    1    3    3  502    0  0.62325393253E+03  0.54460808036E+03  0.15250027828E+03  0.84160642428E+03  0.12699999809E+01 0.  1.
       -4    1    3    3    0  502 -0.62325393253E+03 -0.54460808036E+03  0.58733465561E+03  0.10148926230E+04  0.12699999809E+01 0. -1.
</event>
<event>
 5   0  0.1285639E-04  0.1699470E+04  0.7818609E-02  0.8761667E-01
       -2   -1    0    0    0  501  0.00000000000E+00  0.00000000000E+00  0.62969493277E+03  0.62969493278E+03  0.25500000920E-02 0. -1.
        2   -1    0    0  501    0  0.00000000000E+00  0.00000000000E+00 -0.11466652123E+04  0.11466652123E+04  0.25500000920E-02 0.  1.
    10030    2    1    2    0    0  0.00000000000E+00  0.00000000000E+00 -0.51697027952E+03  0.17763601451E+04  0.16994696511E+04 0.  0.
        4    1    3    3  502    0  0.83886831372E+02  0.53011451689E+03  0.43009913103E+03  0.68778287047E+03  0.12699999809E+01 0. -1.
       -4    1    3    3    0  502 -0.83886831372E+02 -0.53011451689E+03 -0.94706941055E+03  0.10885772746E+04  0.12699999809E+01 0.  1.
</event>
<event>
 5   0  0.1269175E-04  0.1703976E+04  0.7818609E-02  0.8759100E-01
        2   -1    0    0  501    0  0.00000000000E+00  0.00000000000E+00  0.11420604948E+04  0.11420604948E+04  0.25500000920E-02 0. -1.
       -2   -1    0    0    0  501  0.00000000000E+00  0.00000000000E+00 -0.63559101576E+03  0.63559101577E+03  0.25500000920E-02 0.  1.
    10030    2    1    2    0    0  0.00000000000E+00  0.00000000000E+00  0.50646947903E+03  0.17776515106E+04  0.17039758096E+04 0.  0.
        2    1    3    3  502    0 -0.61971471924E+01  0.27173168652E+03 -0.58914766925E+03  0.64882315794E+03  0.25500000920E-02 0.  1.
       -2    1    3    3    0  502  0.61971471924E+01 -0.27173168652E+03  0.10956171483E+04  0.11288283526E+04  0.25500000920E-02 0. -1.
</event>
<event>
 5   0  0.1255362E-04  0.1696369E+04  0.7818609E-02  0.8763438E-01
       -2   -1    0    0    0  501  0.00000000000E+00  0.00000000000E+00  0.35676142244E+03  0.35676142245E+03  0.25500000920E-02 0.  1.
        2   -1    0    0  501    0  0.00000000000E+00  0.00000000000E+00 -0.20165209894E+04  0.20165209894E+04  0.25500000920E-02 0. -1.
    10030    2    1    2    0    0  0.00000000000E+00  0.00000000000E+00 -0.16597595670E+04  0.23732824119E+04  0.16963689417E+04 0.  0.
        1    1    3    3  502    0  0.68693315520E+03  0.16551320578E+03 -0.17345701681E+03  0.72757069603E+03  0.50400001928E-02 0.  1.
       -1    1    3    3    0  502 -0.68693315520E+03 -0.16551320578E+03 -0.14863025502E+04  0.16457117159E+04  0.50400001928E-02 0. -1.
</event>
<event>
 5   0  0.1285639E-04  0.1697366E+04  0.7818609E-02  0.8762868E-01
       -2   -1    0    0    0  501  0.00000000000E+00  0.00000000000E+00  0.43429052269E+03  0.43429052269E+03  0.25500000920E-02 0. -1.
        2   -1    0    0  501    0  0.00000000000E+00  0.00000000000E+00 -0.16584821990E+04  0.16584821990E+04  0.25500000920E-02 0.  1.
    10030    2    1    2    0    0  0.00000000000E+00  0.00000000000E+00 -0.12241916763E+04  0.20927727217E+04  0.16973663141E+04 0.  0.
        4    1    3    3  502    0  0.50931050149E+03 -0.41299499417E+03  0.52212315544E+02  0.65779160145E+03  0.12699999809E+01 0. -1.
       -4    1    3    3    0  502 -0.50931050149E+03  0.41299499417E+03 -0.12764039919E+04  0.14349811203E+04  0.12699999809E+01 0.  1.
</event>
<event>
 5   0  0.1333546E-04  0.1701924E+04  0.7818609E-02  0.8760268E-01
       -2   -1    0    0    0  501  0.00000000000E+00  0.00000000000E+00  0.31176750142E+03  0.31176750143E+03  0.25500000920E-02 0.  1.
        2   -1    0    0  501    0  0.00000000000E+00  0.00000000000E+00 -0.23226799352E+04  0.23226799352E+04  0.25500000920E-02 0. -1.
    10030    2    1    2    0    0  0.00000000000E+00  0.00000000000E+00 -0.20109124338E+04  0.26344474366E+04  0.17019237586E+04 0.  0.
        5    1    3    3  502    0  0.44480433225E+03 -0.42135978103E+03 -0.19195426986E+04  0.20149593596E+04  0.46999998093E+01 0. -1.
       -5    1    3    3    0  502 -0.44480433225E+03  0.42135978103E+03 -0.91369735135E+02  0.61948807700E+03  0.46999998093E+01 0.  1.
</event>
<event>
 5   0  0.6615842E-05  0.1686355E+04  0.7818609E-02  0.8769185E-01
        1   -1    0    0  501    0  0.00000000000E+00  0.00000000000E+00  0.19595369116E+04  0.19595369116E+04  0.50400001928E-02 0.  1.
       -1   -1    0    0    0  501  0.00000000000E+00  0.00000000000E+00 -0.36281435781E+03  0.36281435784E+03  0.50400001928E-02 0. -1.
    10030    2    1    2    0    0  0.00000000000E+00  0.00000000000E+00  0.15967225538E+04  0.23223512695E+04  0.16863547981E+04 0.  0.
        3    1    3    3  502    0  0.41964206504E+03 -0.32396643442E+02  0.18045232055E+04  0.18529579096E+04  0.10100000352E+00 0.  1.
       -3    1    3    3    0  502 -0.41964206504E+03  0.32396643442E+02 -0.20780065170E+03  0.46939335988E+03  0.10100000352E+00 0. -1.
</event>
<event>
 5   0  0.6615842E-05  0.1719185E+04  0.7818609E-02  0.8750498E-01
        1   -1    0    0  501    0  0.00000000000E+00  0.00000000000E+00  0.15908699921E+04  0.15908699921E+04  0.50400001928E-02 0. -1.
       -1   -1    0    0    0  501  0.00000000000E+00  0.00000000000E+00 -0.46446223518E+03  0.46446223521E+03  0.50400001928E-02 0.  1.
    10030    2    1    2    0    0  0.00000000000E+00  0.00000000000E+00  0.11264077569E+04  0.20553322273E+04  0.17191847282E+04 0.  0.
        3    1    3    3  502    0 -0.26037194132E+02  0.55082520876E+03 -0.22513071706E+03  0.59562588598E+03  0.10100000352E+00 0.  1.
       -3    1    3    3    0  502  0.26037194132E+02 -0.55082520876E+03  0.13515384739E+04  0.14597063413E+04  0.10100000352E+00 0. -1.
</event>
<event>
 5   0  0.6564887E-05  0.1700607E+04  0.7818609E-02  0.8761018E-01
        1   -1    0    0  501    0  0.00000000000E+00  0.00000000000E+00  0.95973577555E+03  0.95973577556E+03  0.50400001928E-02 0.  1.
       -1   -1    0    0    0  501  0.00000000000E+00  0.00000000000E+00 -0.75334889021E+03  0.75334889022E+03  0.50400001928E-02 0. -1.
    10030    2    1    2    0    0  0.00000000000E+00  0.00000000000E+00  0.20638688534E+03  0.17130846658E+04  0.17006068110E+04 0.  0.
        4    1    3    3  502    0 -0.80774000456E+03 -0.15439896594E+03  0.32095384220E+03  0.88277739967E+03  0.12699999809E+01 0.  1.
       -4    1    3    3    0  502  0.80774000456E+03  0.15439896594E+03 -0.11456695686E+03  0.83030726611E+03  0.12699999809E+01 0. -1.
</event>
<event>
 5   0  0.6601906E-05  0.1703461E+04  0.7818609E-02  0.8759393E-01
        1   -1    0    0  501    0  0.00000000000E+00  0.00000000000E+00  0.14400364052E+04  0.14400364052E+04  0.50400001928E-02 0. -1.
       -1   -1    0    0    0  501  0.00000000000E+00  0.00000000000E+00 -0.50376826797E+03  0.50376826800E+03  0.50400001928E-02 0.  1.
    10030    2    1    2    0    0  0.00000000000E+00  0.00000000000E+00  0.93626813721E+03  0.19438046732E+04  0.17034607664E+04 0.  0.
        1    1    3    3  502    0  0.33658374612E+03 -0.42564410679E+02  0.13596065311E+04  0.14012959240E+04  0.50400001928E-02 0. -1.
       -1    1    3    3    0  502 -0.33658374612E+03  0.42564410679E+02 -0.42333839387E+03  0.54250874920E+03  0.50400001928E-02 0.  1.
</event>
<event>
 5   0  0.1255362E-04  0.1698564E+04  0.7818609E-02  0.8762184E-01
       -2   -1    0    0    0  501  0.00000000000E+00  0.00000000000E+00  0.71526901783E+03  0.71526901783E+03  0.25500000920E-02 0. -1.
        2   -1    0    0  501    0  0.00000000000E+00  0.00000000000E+00 -0.10084038943E+04  0.10084038943E+04  0.25500000920E-02 0.  1.
    10030    2    1    2    0    0  0.00000000000E+00  0.00000000000E+00 -0.29313487644E+03  0.17236729121E+04  0.16985641737E+04 0.  0.
        1    1    3    3  502    0  0.12615754558E+03  0.17171443704E+03 -0.98083855692E+03  0.10037160201E+04  0.50400001928E-02 0.  1.
       -1    1    3    3    0  502 -0.12615754558E+03 -0.17171443704E+03  0.68770368048E+03  0.71995689202E+03  0.50400001928E-02 0. -1.
</event>
<event>
 5   0  0.1285639E-04  0.1704884E+04  0.7818609E-02  0.8758584E-01
        2   -1    0    0  501    0  0.00000000000E+00  0.00000000000E+00  0.21430415267E+04  0.21430415267E+04  0.25500000920E-02 0. -1.
       -2   -1    0    0    0  501  0.00000000000E+00  0.00000000000E+00 -0.33907741233E+03  0.33907741234E+03  0.25500000920E-02 0.  1.
    10030    2    1    2    0    0  0.00000000000E+00  0.00000000000E+00  0.18039641143E+04  0.24821189390E+04  0.17048835449E+04 0.  0.
        4    1    3    3  502    0 -0.66669264969E+03  0.37353011010E+03  0.35210438366E+03  0.84141722242E+03  0.12699999809E+01 0.  1.
       -4    1    3    3    0  502  0.66669264969E+03 -0.37353011010E+03  0.14518597307E+04  0.16407017166E+04  0.12699999809E+01 0. -1.
</event>
<event>
 5   0  0.1269175E-04  0.1702008E+04  0.7818609E-02  0.8760220E-01
        2   -1    0    0  501    0  0.00000000000E+00  0.00000000000E+00  0.12780328524E+04  0.12780328525E+04  0.25500000920E-02 0. -1.
       -2   -1    0    0    0  501  0.00000000000E+00  0.00000000000E+00 -0.56665836854E+03  0.56665836855E+03  0.25500000920E-02 0.  1.
    10030    2    1    2    0    0  0.00000000000E+00  0.00000000000E+00  0.71137448391E+03  0.18446912210E+04  0.17020082387E+04 0.  0.
        2    1    3    3  502    0 -0.77156480009E+03  0.26498564410E+03  0.93143859483E+02  0.82110012232E+03  0.25500000920E-02 0.  1.
       -2    1    3    3    0  502  0.77156480009E+03 -0.26498564410E+03  0.61823062442E+03  0.10235910987E+04  0.25500000920E-02 0. -1.
</event>
<event>
 5   0  0.6834837E-05  0.1696879E+04  0.7818609E-02  0.8763146E-01
       -1   -1    0    0    0  501  0.00000000000E+00  0.00000000000E+00  0.63325559471E+03  0.63325559473E+03  0.50400001928E-02 0.  1.
        1   -1    0    0  501    0  0.00000000000E+00  0.00000000000E+00 -0.11367444004E+04  0.11367444004E+04  0.50400001928E-02 0. -1.
    10030    2    1    2    0    0  0.00000000000E+00  0.00000000000E+00 -0.50348880566E+03  0.17699999951E+04  0.16968791958E+04 0.  0.
        5    1    3    3  502    0  0.14120522114E+02 -0.58658532589E+02 -0.11344902698E+04  0.11361031973E+04  0.46999998093E+01 0. -1.
       -5    1    3    3    0  502 -0.14120522114E+02  0.58658532589E+02  0.63100146413E+03  0.63389679785E+03  0.46999998093E+01 0.  1.
</event>
<event>
 5   0  0.6615842E-05  0.1678356E+04  0.7818609E-02  0.8773806E-01
        1   -1    0    0  501    0  0.00000000000E+00  0.00000000000E+00  0.19704827047E+04  0.19704827047E+04  0.50400001928E-02 0.  1.
       -1   -1    0    0    0  501  0.00000000000E+00  0.00000000000E+00 -0.35738445757E+03  0.35738445761E+03  0.50400001928E-02 0. -1.
    10030    2    1    2    0    0  0.00000000000E+00  0.00000000000E+00  0.16130982471E+04  0.23278671623E+04  0.16783562109E+04 0.  0.
        3    1    3    3  502    0  0.82102792974E+02  0.49372384459E+03  0.17408053386E+04  0.18113275078E+04  0.10100000352E+00 0.  1.
       -3    1    3    3    0  502 -0.82102792974E+02 -0.49372384459E+03 -0.12770709145E+03  0.51653965456E+03  0.10100000352E+00 0. -1.
</event>
<event>
 5   0  0.1255362E-04  0.1689688E+04  0.7818609E-02  0.8767268E-01
        2   -1    0    0  501    0  0.00000000000E+00  0.00000000000E+00  0.13054810622E+04  0.13054810622E+04  0.25500000920E-02 0.  1.
       -2   -1    0    0    0  501  0.00000000000E+00  0.00000000000E+00 -0.54674179126E+03  0.54674179126E+03  0.25500000920E-02 0. -1.
    10030    2    1    2    0    0  0.00000000000E+00  0.00000000000E+00  0.75873927097E+03  0.18522228535E+04  0.16896876095E+04 0.  0.
        1    1    3    3  502    0  0.24663680958E+03  0.14554363859E+03  0.12506519328E+04  0.12830210145E+04  0.50400001928E-02 0.  1.
       -1    1    3    3    0  502 -0.24663680958E+03 -0.14554363859E+03 -0.49191266186E+03  0.56920183898E+03  0.50400001928E-02 0. -1.
</event>
<event>
 5   0  0.6564887E-05  0.1695153E+04  0.7818609E-02  0.8764134E-01
       -1   -1    0    0    0  501  0.00000000000E+00  0.00000000000E+00  0.11238382172E+04  0.11238382173E+04  0.50400001928E-02 0.  1.
        1   -1    0    0  501    0  0.00000000000E+00  0.00000000000E+00 -0.63922508175E+03  0.63922508177E+03  0.50400001928E-02 0. -1.
    10030    2    1    2    0    0  0.00000000000E+00  0.00000000000E+00  0.48461313549E+03  0.17630632990E+04  0.16951525906E+04 0.  0.
        4    1    3    3  502    0 -0.37067796339E+03 -0.70918169980E+03 -0.48247152113E+02  0.80166716065E+03  0.12699999809E+01 0. -1.
       -4    1    3    3    0  502  0.37067796339E+03  0.70918169980E+03  0.53286028760E+03  0.96139613837E+03  0.12699999809E+01 0.  1.
</event>
<event>
 5   0  0.6615842E-05  0.1701548E+04  0.7818609E-02  0.8760482E-01
       -1   -1    0    0    0  501  0.00000000000E+00  0.00000000000E+00  0.40377343739E+03  0.40377343742E+03  0.50400001928E-02 0.  1.
        1   -1    0    0  501    0  0.00000000000E+00  0.00000000000E+00 -0.17926292161E+04  0.17926292162E+04  0.50400001928E-02 0. -1.
    10030    2    1    2    0    0  0.00000000000E+00  0.00000000000E+00 -0.13888557788E+04  0.21964026536E+04  0.17015476022E+04 0.  0.
        3    1    3    3  502    0  0.54261177023E+03  0.27907874729E+03 -0.14597296748E+04  0.15821261688E+04  0.10100000352E+00 0. -1.
       -3    1    3    3    0  502 -0.54261177023E+03 -0.27907874729E+03  0.70873896042E+02  0.61427648476E+03  0.10100000352E+00 0.  1.
</event>
<event>
 5   0  0.6601906E-05  0.1702725E+04  0.7818609E-02  0.8759812E-01
       -1   -1    0    0    0  501  0.00000000000E+00  0.00000000000E+00  0.46998633165E+03  0.46998633168E+03  0.50400001928E-02 0. -1.
        1   -1    0    0  501    0  0.00000000000E+00  0.00000000000E+00 -0.15422116724E+04  0.15422116725E+04  0.50400001928E-02 0.  1.
    10030    2    1    2    0    0  0.00000000000E+00  0.00000000000E+00 -0.10722253408E+04  0.20121980041E+04  0.17027253526E+04 0.  0.
        1    1    3    3  502    0 -0.28449396761E+03  0.79655597065E+03 -0.42165851309E+03  0.94511064626E+03  0.50400001928E-02 0. -1.
       -1    1    3    3    0  502  0.28449396761E+03 -0.79655597065E+03 -0.65056682771E+03  0.10670873579E+04  0.50400001928E-02 0.  1.
</event>
<event>
 5   0  0.6834837E-05  0.1700727E+04  0.7818609E-02  0.8760950E-01
        1   -1    0    0  501    0  0.00000000000E+00  0.00000000000E+00  0.65029405630E+03  0.65029405632E+03  0.50400001928E-02 0.  1.
       -1   -1    0    0    0  501  0.00000000000E+00  0.00000000000E+00 -0.11119859842E+04  0.11119859842E+04  0.50400001928E-02 0. -1.
    10030    2    1    2    0    0  0.00000000000E+00  0.00000000000E+00 -0.46169192785E+03  0.17622800405E+04  0.17007267578E+04 0.  0.
        5    1    3    3  502    0 -0.22357666976E+02  0.52117313642E+03 -0.92669713496E+03  0.10634429808E+04  0.46999998093E+01 0. -1.
       -5    1    3    3    0  502  0.22357666976E+02 -0.52117313642E+03  0.46500520711E+03  0.69883705972E+03  0.46999998093E+01 0.  1.
</event>
<event>
 5   0  0.6615842E-05  0.1700205E+04  0.7818609E-02  0.8761247E-01
       -1   -1    0    0    0  501  0.00000000000E+00  0.00000000000E+00  0.92452265384E+03  0.92452265385E+03  0.50400001928E-02 0. -1.
        1   -1    0    0  501    0  0.00000000000E+00  0.00000000000E+00 -0.78167315539E+03  0.78167315541E+03  0.50400001928E-02 0.  1.
    10030    2    1    2    0    0  0.00000000000E+00  0.00000000000E+00  0.14284949844E+03  0.17061958093E+04  0.17002053289E+04 0.  0.
        3    1    3    3  502    0 -0.29197288211E+03  0.27774227833E+03 -0.67973485676E+03  0.79020783516E+03  0.10100000352E+00 0.  1.
       -3    1    3    3    0  502  0.29197288211E+03 -0.27774227833E+03  0.82258435520E+03  0.91598797409E+03  0.10100000352E+00 0. -1.
</event>
<event>
 5   0  0.1285639E-04  0.1664202E+04  0.7818609E-02  0.8782049E-01
       -2   -1    0    0    0  501  0.00000000000E+00  0.00000000000E+00  0.47120754919E+03  0.47120754919E+03  0.25500000920E-02 0.  1.
        2   -1    0    0  501    0  0.00000000000E+00  0.00000000000E+00 -0.14694001352E+04  0.14694001352E+04  0.25500000920E-02 0. -1.
    10030    2    1    2    0    0  0.00000000000E+00  0.00000000000E+00 -0.99819258598E+03  0.19406076844E+04  0.16642024354E+04 0.  0.
        4    1    3    3  502    0  0.16695715069E+03  0.71219972817E+03 -0.36631210596E+02  0.73242515076E+03  0.12699999809E+01 0.  1.
       -4    1    3    3    0  502 -0.16695715069E+03 -0.71219972817E+03 -0.96156137539E+03  0.12081825336E+04  0.12699999809E+01 0. -1.
</event>
<event>
 5   0  0.1255362E-04  0.1701158E+04  0.7818609E-02  0.8760704E-01
        2   -1    0    0  501    0  0.00000000000E+00  0.00000000000E+00  0.55821252965E+03  0.55821252965E+03  0.25500000920E-02 0. -1.
       -2   -1    0    0    0  501  0.00000000000E+00  0.00000000000E+00 -0.12960730948E+04  0.12960730948E+04  0.25500000920E-02 0.  1.
    10030    2    1    2    0    0  0.00000000000E+00  0.00000000000E+00 -0.73786056517E+03  0.18542856245E+04  0.17011575364E+04 0.  0.
        1    1    3    3  502    0 -0.80194316310E+03  0.11928022805E+03 -0.64926450257E+03  0.10386938933E+04  0.50400001928E-02 0.  1.
       -1    1    3    3    0  502  0.80194316310E+03 -0.11928022805E+03 -0.88596062601E+02  0.81559173118E+03  0.50400001928E-02 0. -1.
</event>
<event>
 5   0  0.6564887E-05  0.1697701E+04  0.7818609E-02  0.8762677E-01
        1   -1    0    0  501    0  0.00000000000E+00  0.00000000000E+00  0.61914637255E+03  0.61914637257E+03  0.50400001928E-02 0. -1.
       -1   -1    0    0    0  501  0.00000000000E+00  0.00000000000E+00 -0.11637747145E+04  0.11637747145E+04  0.50400001928E-02 0.  1.
    10030    2    1    2    0    0  0.00000000000E+00  0.00000000000E+00 -0.54462834194E+03  0.17829210871E+04  0.16977006721E+04 0.  0.
        4    1    3    3  502    0  0.52768644480E+03 -0.40676931258E+02 -0.96928280811E+03  0.11043633332E+04  0.12699999809E+01 0.  1.
       -4    1    3    3    0  502 -0.52768644480E+03  0.40676931258E+02  0.42465446618E+03  0.67855775385E+03  0.12699999809E+01 0. -1.
</event>
<event>
 5   0  0.1333546E-04  0.1704616E+04  0.7818609E-02  0.8758736E-01
        2   -1    0    0  501    0  0.00000000000E+00  0.00000000000E+00  0.85672186094E+03  0.85672186094E+03  0.25500000920E-02 0.  1.
       -2   -1    0    0    0  501  0.00000000000E+00  0.00000000000E+00 -0.84791644751E+03  0.84791644752E+03  0.25500000920E-02 0. -1.
    10030    2    1    2    0    0  0.00000000000E+00  0.00000000000E+00  0.88054134208E+01  0.17046383085E+04  0.17046155659E+04 0.  0.
        5    1    3    3  502    0  0.41576296252E+03 -0.71307755244E+03 -0.20789244779E+03  0.85122253063E+03  0.46999998093E+01 0. -1.
       -5    1    3    3    0  502 -0.41576296252E+03  0.71307755244E+03  0.21669786122E+03  0.85341577783E+03  0.46999998093E+01 0.  1.
</event>
<event>
 5   0  0.6564887E-05  0.1699667E+04  0.7818609E-02  0.8761554E-01
       -1   -1    0    0    0  501  0.00000000000E+00  0.00000000000E+00  0.37705553526E+03  0.37705553529E+03  0.50400001928E-02 0. -1.
        1   -1    0    0  501    0  0.00000000000E+00  0.00000000000E+00 -0.19154136014E+04  0.19154136014E+04  0.50400001928E-02 0.  1.
    10030    2    1    2    0    0  0.00000000000E+00  0.00000000000E+00 -0.15383580661E+04  0.22924691367E+04  0.16996673801E+04 0.  0.
        4    1    3    3  502    0 -0.27400735237E+03 -0.44479799669E+03 -0.16732512600E+04  0.17529109159E+04  0.12699999809E+01 0.  1.
       -4    1    3    3    0  502  0.27400735237E+03  0.44479799669E+03  0.13489319385E+03  0.53955822083E+03  0.12699999809E+01 0. -1.
</event>
<event>
 5   0  0.6601906E-05  0.1703680E+04  0.7818609E-02  0.8759268E-01
        1   -1    0    0  501    0  0.00000000000E+00  0.00000000000E+00  0.13745784974E+04  0.13745784974E+04  0.50400001928E-02 0.  1.
       -1   -1    0    0    0  501  0.00000000000E+00  0.00000000000E+00 -0.52789403036E+03  0.52789403038E+03  0.50400001928E-02 0. -1.
    10030    2    1    2    0    0  0.00000000000E+00  0.00000000000E+00  0.84668446702E+03  0.19024725278E+04  0.17036804666E+04 0.  0.
        1    1    3    3  502    0  0.63919476344E+03  0.96102124640E+02  0.10429017813E+04  0.12269676807E+04  0.50400001928E-02 0.  1.
       -1    1    3    3    0  502 -0.63919476344E+03 -0.96102124640E+02 -0.19621731429E+03  0.67550484708E+03  0.50400001928E-02 0. -1.
</event>
<event>
 5   0  0.6601906E-05  0.1689551E+04  0.7818609E-02  0.8767346E-01
        1   -1    0    0  501    0  0.00000000000E+00  0.00000000000E+00  0.67539229215E+03  0.67539229217E+03  0.50400001928E-02 0.  1.
       -1   -1    0    0    0  501  0.00000000000E+00  0.00000000000E+00 -0.10566385246E+04  0.10566385246E+04  0.50400001928E-02 0. -1.
    10030    2    1    2    0    0  0.00000000000E+00  0.00000000000E+00 -0.38124623248E+03  0.17320308168E+04  0.16895508458E+04 0.  0.
        1    1    3    3  502    0 -0.27401648212E+03 -0.12597891521E+03  0.61832417129E+03  0.68795385047E+03  0.50400001928E-02 0.  1.
       -1    1    3    3    0  502  0.27401648212E+03  0.12597891521E+03 -0.99957040376E+03  0.10440769663E+04  0.50400001928E-02 0. -1.
</event>
<event>
 5   0  0.6615842E-05  0.1699811E+04  0.7818609E-02  0.8761472E-01
        1   -1    0    0  501    0  0.00000000000E+00  0.00000000000E+00  0.54448517771E+03  0.54448517773E+03  0.50400001928E-02 0.  1.
       -1   -1    0    0    0  501  0.00000000000E+00  0.00000000000E+00 -0.13266470876E+04  0.13266470876E+04  0.50400001928E-02 0. -1.
    10030    2    1    2    0    0  0.00000000000E+00  0.00000000000E+00 -0.78216190985E+03  0.18711322653E+04  0.16998113722E+04 0.  0.
        3    1    3    3  502    0  0.33050065268E+03 -0.65949701380E+03 -0.85572920325E+03  0.11297962082E+04  0.10100000352E+00 0. -1.
       -3    1    3    3    0  502 -0.33050065268E+03  0.65949701380E+03  0.73567293403E+02  0.74133605706E+03  0.10100000352E+00 0.  1.
</event>
<event>
 5   0  0.1333546E-04  0.1703348E+04  0.7818609E-02  0.8759457E-01
       -2   -1    0    0    0  501  0.00000000000E+00  0.00000000000E+00  0.13682839679E+04  0.13682839679E+04  0.25500000920E-02 0.  1.
        2   -1    0    0  501    0  0.00000000000E+00  0.00000000000E+00 -0.53011535468E+03  0.53011535469E+03  0.25500000920E-02 0. -1.
    10030    2    1    2    0    0  0.00000000000E+00  0.00000000000E+00  0.83816861318E+03  0.18983993226E+04  0.17033476931E+04 0.  0.
        5    1    3    3  502    0 -0.61017542571E+03 -0.26898714296E+03  0.10095206305E+04  0.12098851709E+04  0.46999998093E+01 0.  1.
       -5    1    3    3    0  502  0.61017542571E+03  0.26898714296E+03 -0.17135201735E+03  0.68851415168E+03  0.46999998093E+01 0. -1.
</event>
<event>
 5   0  0.1255362E-04  0.1716419E+04  0.7818609E-02  0.8752055E-01
        2   -1    0    0  501    0  0.00000000000E+00  0.00000000000E+00  0.11873151875E+04  0.11873151875E+04  0.25500000920E-02 0. -1.
       -2   -1    0    0    0  501  0.00000000000E+00  0.00000000000E+00 -0.62032705853E+03  0.62032705853E+03  0.25500000920E-02 0.  1.
    10030    2    1    2    0    0  0.00000000000E+00  0.00000000000E+00  0.56698812896E+03  0.18076422460E+04  0.17164192236E+04 0.  0.
        1    1    3    3  502    0 -0.65624026835E+03 -0.36442935179E+03  0.72161307612E+03  0.10412422744E+04  0.50400001928E-02 0. -1.
       -1    1    3    3    0  502  0.65624026835E+03  0.36442935179E+03 -0.15462494716E+03  0.76639997166E+03  0.50400001928E-02 0.  1.
</event>
<event>
 5   0  0.6564887E-05  0.1692530E+04  0.7818609E-02  0.8765636E-01
       -1   -1    0    0    0  501  0.00000000000E+00  0.00000000000E+00  0.68133201195E+03  0.68133201197E+03  0.50400001928E-02 0.  1.
        1   -1    0    0  501    0  0.00000000000E+00  0.00000000000E+00 -0.10511243939E+04  0.10511243939E+04  0.50400001928E-02 0. -1.
    10030    2    1    2    0    0  0.00000000000E+00  0.00000000000E+00 -0.36979238193E+03  0.17324564059E+04  0.16925302929E+04 0.  0.
        4    1    3    3  502    0  0.10947682660E+03 -0.47372123131E+03  0.52409468411E+03  0.71489427986E+03  0.12699999809E+01 0.  1.
       -4    1    3    3    0  502 -0.10947682660E+03  0.47372123131E+03 -0.89388706604E+03  0.10175621260E+04  0.12699999809E+01 0. -1.
</event>
<event>
 5   0  0.6615842E-05  0.1717206E+04  0.7818609E-02  0.8751611E-01
       -1   -1    0    0    0  501  0.00000000000E+00  0.00000000000E+00  0.43908906173E+03  0.43908906176E+03  0.50400001928E-02 0. -1.
        1   -1    0    0  501    0  0.00000000000E+00  0.00000000000E+00 -0.16789290552E+04  0.16789290552E+04  0.50400001928E-02 0.  1.
    10030    2    1    2    0    0  0.00000000000E+00  0.00000000000E+00 -0.12398399935E+04  0.21180181170E+04  0.17172063168E+04 0.  0.
        3    1    3    3  502    0  0.50090892518E+01 -0.10441985638E+03  0.43121011584E+03  0.44370121882E+03  0.10100000352E+00 0. -1.
       -3    1    3    3    0  502 -0.50090892518E+01  0.10441985638E+03 -0.16710501093E+04  0.16743168981E+04  0.10100000352E+00 0.  1.
</event>
<event>
 5   0  0.1333546E-04  0.1700634E+04  0.7818609E-02  0.8761003E-01
        2   -1    0    0  501    0  0.00000000000E+00  0.00000000000E+00  0.18204187005E+04  0.18204187005E+04  0.25500000920E-02 0.  1.
       -2   -1    0    0    0  501  0.00000000000E+00  0.00000000000E+00 -0.39718294585E+03  0.39718294586E+03  0.25500000920E-02 0. -1.
    10030    2    1    2    0    0  0.00000000000E+00  0.00000000000E+00  0.14232357547E+04  0.22176016464E+04  0.17006343077E+04 0.  0.
        5    1    3    3  502    0  0.31315016824E+01  0.33800762719E+03  0.17290255650E+04  0.17617634509E+04  0.46999998093E+01 0.  1.
       -5    1    3    3    0  502 -0.31315016824E+01 -0.33800762719E+03 -0.30578981037E+03  0.45583819549E+03  0.46999998093E+01 0. -1.
</event>
<event>
 5   0  0.6615842E-05  0.1708239E+04  0.7818609E-02  0.8756679E-01
       -1   -1    0    0    0  501  0.00000000000E+00  0.00000000000E+00  0.47650682555E+03  0.47650682557E+03  0.50400001928E-02 0.  1.
        1   -1    0    0  501    0  0.00000000000E+00  0.00000000000E+00 -0.15309757299E+04  0.15309757300E+04  0.50400001928E-02 0. -1.
    10030    2    1    2    0    0  0.00000000000E+00  0.00000000000E+00 -0.10544689044E+04  0.20074825555E+04  0.17082393101E+04 0.  0.
        3    1    3    3  502    0  0.11524712824E+03 -0.11548737048E+03  0.45802405340E+03  0.48621525788E+03  0.10100000352E+00 0.  1.
       -3    1    3    3    0  502 -0.11524712824E+03  0.11548737048E+03 -0.15124929578E+04  0.15212672976E+04  0.10100000352E+00 0. -1.
</event>
<event>
 5   0  0.6615842E-05  0.1702475E+04  0.7818609E-02  0.8759954E-01
        1   -1    0    0  501    0  0.00000000000E+00  0.00000000000E+00  0.98721134074E+03  0.98721134075E+03  0.50400001928E-02 0.  1.
       -1   -1    0    0    0  501  0.00000000000E+00  0.00000000000E+00 -0.73399207210E+03  0.73399207212E+03  0.50400001928E-02 0. -1.
    10030    2    1    2    0    0  0.00000000000E+00  0.00000000000E+00  0.25321926864E+03  0.17212034129E+04  0.17024750190E+04 0.  0.
        3    1    3    3  502    0 -0.32666378171E+03  0.41478867332E+03  0.80167230181E+03  0.95991528766E+03  0.10100000352E+00 0.  1.
       -3    1    3    3    0  502  0.32666378171E+03 -0.41478867332E+03 -0.54845303317E+03  0.76128812521E+03  0.10100000352E+00 0. -1.
</event>
<event>
 5   0  0.1285639E-04  0.1714565E+04  0.7818609E-02  0.8753101E-01
        2   -1    0    0  501    0  0.00000000000E+00  0.00000000000E+00  0.10370133010E+04  0.10370133010E+04  0.25500000920E-02 0.  1.
       -2   -1    0    0    0  501  0.00000000000E+00  0.00000000000E+00 -0.70870173169E+03  0.70870173169E+03  0.25500000920E-02 0. -1.
    10030    2    1    2    0    0  0.00000000000E+00  0.00000000000E+00  0.32831156929E+03  0.17457150327E+04  0.17145648103E+04 0.  0.
        4    1    3    3  502    0  0.60915668324E+03  0.27829737577E+03 -0.38074031278E+03  0.77038048572E+03  0.12699999809E+01 0. -1.
       -4    1    3    3    0  502 -0.60915668324E+03 -0.27829737577E+03  0.70905188207E+03  0.97533454695E+03  0.12699999809E+01 0.  1.
</event>
<event>
 5   0  0.1269175E-04  0.1692705E+04  0.7818609E-02  0.8765536E-01
        2   -1    0    0  501    0  0.00000000000E+00  0.00000000000E+00  0.14640416028E+04  0.14640416028E+04  0.25500000920E-02 0. -1.
       -2   -1    0    0    0  501  0.00000000000E+00  0.00000000000E+00 -0.48927087626E+03  0.48927087627E+03  0.25500000920E-02 0.  1.
    10030    2    1    2    0    0  0.00000000000E+00  0.00000000000E+00  0.97477072649E+03  0.19533124790E+04  0.16927054296E+04 0.  0.
        2    1    3    3  502    0  0.65013649221E+03 -0.36801122907E+03  0.94636980229E+03  0.12057054059E+04  0.25500000920E-02 0. -1.
       -2    1    3    3    0  502 -0.65013649221E+03  0.36801122907E+03  0.28400924196E+02  0.74760707308E+03  0.25500000920E-02 0.  1.
</event>
<event>
 5   0  0.6539134E-05  0.1693502E+04  0.7818609E-02  0.8765079E-01
       -1   -1    0    0    0  501  0.00000000000E+00  0.00000000000E+00  0.12201461725E+04  0.12201461725E+04  0.50400001928E-02 0.  1.
        1   -1    0    0  501    0  0.00000000000E+00  0.00000000000E+00 -0.58762410893E+03  0.58762410895E+03  0.50400001928E-02 0. -1.
    10030    2    1    2    0    0  0.00000000000E+00  0.00000000000E+00  0.63252206359E+03  0.18077702815E+04  0.16935020607E+04 0.  0.
        2    1    3    3  502    0  0.38473473470E+03  0.45383401897E+03 -0.32688786392E+03  0.67885330407E+03  0.25500000920E-02 0. -1.
       -2    1    3    3    0  502 -0.38473473470E+03 -0.45383401897E+03  0.95940992751E+03  0.11289169774E+04  0.25500000920E-02 0.  1.
</event>
<event>
 5   0  0.1269175E-04  0.1664591E+04  0.7818609E-02  0.8781821E-01
       -2   -1    0    0    0  501  0.00000000000E+00  0.00000000000E+00  0.39690826063E+03  0.39690826063E+03  0.25500000920E-02 0. -1.
        2   -1    0    0  501    0  0.00000000000E+00  0.00000000000E+00 -0.17452790372E+04  0.17452790372E+04  0.25500000920E-02 0.  1.
    10030    2    1    2    0    0  0.00000000000E+00  0.00000000000E+00 -0.13483707766E+04  0.21421872978E+04  0.16645908410E+04 0.  0.
        2    1    3    3  502    0 -0.23885770577E+03 -0.48942288376E+03 -0.14841530078E+04  0.15809167952E+04  0.25500000920E-02 0.  1.
       -2    1    3    3    0  502  0.23885770577E+03  0.48942288376E+03  0.13578223127E+03  0.56127050260E+03  0.25500000920E-02 0. -1.
</event>
<event>
 5   0  0.6539134E-05  0.1701902E+04  0.7818609E-02  0.8760280E-01
       -1   -1    0    0    0  501  0.00000000000E+00  0.00000000000E+00  0.67533227300E+03  0.67533227302E+03  0.50400001928E-02 0. -1.
        1   -1    0    0  501    0  0.00000000000E+00  0.00000000000E+00 -0.10722387608E+04  0.10722387608E+04  0.50400001928E-02 0.  1.
    10030    2    1    2    0    0  0.00000000000E+00  0.00000000000E+00 -0.39690648778E+03  0.17475710338E+04  0.17019018063E+04 0.  0.
        2    1    3    3  502    0 -0.75342335227E+03 -0.30506761074E+02 -0.60342191472E+03  0.96576157378E+03  0.25500000920E-02 0.  1.
       -2    1    3    3    0  502  0.75342335227E+03  0.30506761074E+02  0.20651542694E+03  0.78180946003E+03  0.25500000920E-02 0. -1.
</event>
<event>
 5   0  0.4720875E-05  0.1702937E+04  0.7818609E-02  0.8759691E-01
       -3   -1    0    0    0  501  0.00000000000E+00  0.00000000000E+00  0.13232962519E+04  0.13232962558E+04  0.10100000352E+00 0.  1.
        3   -1    0    0  501    0  0.00000000000E+00  0.00000000000E+00 -0.54787324987E+03  0.54787325918E+03  0.10100000352E+00 0. -1.
    10030    2    1    2    0    0  0.00000000000E+00  0.00000000000E+00  0.77542300203E+03  0.18711695149E+04  0.17029370281E+04 0.  0.
        5    1    3    3  502    0  0.38976109772E+03  0.65209065712E+03 -0.34773607412E+02  0.76050459050E+03  0.46999998093E+01 0. -1.
       -5    1    3    3    0  502 -0.38976109772E+03 -0.65209065712E+03  0.81019660944E+03  0.11106649244E+04  0.46999998093E+01 0.  1.
</event>
<event>
 5   0  0.6601906E-05  0.1698320E+04  0.7818609E-02  0.8762323E-01
        1   -1    0    0  501    0  0.00000000000E+00  0.00000000000E+00  0.76468201591E+03  0.76468201593E+03  0.50400001928E-02 0.  1.
       -1   -1    0    0    0  501  0.00000000000E+00  0.00000000000E+00 -0.94297098562E+03  0.94297098563E+03  0.50400001928E-02 0. -1.
    10030    2    1    2    0    0  0.00000000000E+00  0.00000000000E+00 -0.17828896970E+03  0.17076530016E+04  0.16983202928E+04 0.  0.
        1    1    3    3  502    0 -0.34934148736E+03 -0.73604764492E+03  0.15147652606E+03  0.82870425868E+03  0.50400001928E-02 0.  1.
       -1    1    3    3    0  502  0.34934148736E+03  0.73604764492E+03 -0.32976549576E+03  0.87894874288E+03  0.50400001928E-02 0. -1.
</event>
<event>
 5   0  0.1269175E-04  0.1729798E+04  0.7818609E-02  0.8744550E-01
        2   -1    0    0  501    0  0.00000000000E+00  0.00000000000E+00  0.87340920734E+03  0.87340920734E+03  0.25500000920E-02 0. -1.
       -2   -1    0    0    0  501  0.00000000000E+00  0.00000000000E+00 -0.85647184515E+03  0.85647184515E+03  0.25500000920E-02 0.  1.
    10030    2    1    2    0    0  0.00000000000E+00  0.00000000000E+00  0.16937362187E+02  0.17298810525E+04  0.17297981332E+04 0.  0.
        2    1    3    3  502    0  0.60973028670E+03 -0.39386105832E+03 -0.46182276301E+03  0.86033587640E+03  0.25500000920E-02 0.  1.
       -2    1    3    3    0  502 -0.60973028670E+03  0.39386105832E+03  0.47876012520E+03  0.86954517609E+03  0.25500000920E-02 0. -1.
</event>
<event>
 5   0  0.1285639E-04  0.1696508E+04  0.7818609E-02  0.8763358E-01
        2   -1    0    0  501    0  0.00000000000E+00  0.00000000000E+00  0.30053187367E+04  0.30053187367E+04  0.25500000920E-02 0. -1.
       -2   -1    0    0    0  501  0.00000000000E+00  0.00000000000E+00 -0.23942053676E+03  0.23942053677E+03  0.25500000920E-02 0.  1.
    10030    2    1    2    0    0  0.00000000000E+00  0.00000000000E+00  0.27658981999E+04  0.32447392734E+04  0.16965082082E+04 0.  0.
        4    1    3    3  502    0 -0.56388947768E+03  0.61310239920E+03  0.10765300432E+04  0.13611702472E+04  0.12699999809E+01 0. -1.
       -4    1    3    3    0  502  0.56388947768E+03 -0.61310239920E+03  0.16893681567E+04  0.18835690263E+04  0.12699999809E+01 0.  1.
</event>
<event>
 5   0  0.1255362E-04  0.1708463E+04  0.7818609E-02  0.8756552E-01
       -2   -1    0    0    0  501  0.00000000000E+00  0.00000000000E+00  0.86429045805E+03  0.86429045806E+03  0.25500000920E-02 0. -1.
        2   -1    0    0  501    0  0.00000000000E+00  0.00000000000E+00 -0.84428970445E+03  0.84428970446E+03  0.25500000920E-02 0.  1.
    10030    2    1    2    0    0  0.00000000000E+00  0.00000000000E+00  0.20000753601E+02  0.17085801625E+04  0.17084630934E+04 0.  0.
        1    1    3    3  502    0  0.23309894601E+03  0.50842217579E+03 -0.63570887827E+03  0.84673136555E+03  0.50400001928E-02 0.  1.
       -1    1    3    3    0  502 -0.23309894601E+03 -0.50842217579E+03  0.65570963187E+03  0.86184879696E+03  0.50400001928E-02 0. -1.
</event>
<event>
 5   0  0.1255362E-04  0.1691216E+04  0.7818609E-02  0.8766390E-01
        2   -1    0    0  501    0  0.00000000000E+00  0.00000000000E+00  0.13821614599E+04  0.13821614599E+04  0.25500000920E-02 0. -1.
       -2   -1    0    0    0  501  0.00000000000E+00  0.00000000000E+00 -0.51734416126E+03  0.51734416126E+03  0.25500000920E-02 0.  1.
    10030    2    1    2    0    0  0.00000000000E+00  0.00000000000E+00  0.86481729861E+03  0.18995056211E+04  0.16912163211E+04 0.  0.
        1    1    3    3  502    0  0.54975105878E+03 -0.36533750146E+03  0.10260443238E+04  0.12200265042E+04  0.50400001928E-02 0. -1.
       -1    1    3    3    0  502 -0.54975105878E+03  0.36533750146E+03 -0.16122702520E+03  0.67947911689E+03  0.50400001928E-02 0.  1.
</event>
<event>
 5   0  0.6539134E-05  0.1704917E+04  0.7818609E-02  0.8758565E-01
        1   -1    0    0  501    0  0.00000000000E+00  0.00000000000E+00  0.62225519197E+03  0.62225519199E+03  0.50400001928E-02 0.  1.
       -1   -1    0    0    0  501  0.00000000000E+00  0.00000000000E+00 -0.11678253693E+04  0.11678253693E+04  0.50400001928E-02 0. -1.
    10030    2    1    2    0    0  0.00000000000E+00  0.00000000000E+00 -0.54557017728E+03  0.17900805613E+04  0.17049168887E+04 0.  0.
        2    1    3    3  502    0 -0.45085968534E+03 -0.53217647473E+03  0.24179750388E+03  0.73820883835E+03  0.25500000920E-02 0.  1.
       -2    1    3    3    0  502  0.45085968534E+03  0.53217647473E+03 -0.78736768116E+03  0.10518717229E+04  0.25500000920E-02 0. -1.
</event>
<event>
 5   0  0.6539134E-05  0.1708560E+04  0.7818609E-02  0.8756497E-01
        1   -1    0    0  501    0  0.00000000000E+00  0.00000000000E+00  0.52616866096E+03  0.52616866098E+03  0.50400001928E-02 0.  1.
       -1   -1    0    0    0  501  0.00000000000E+00  0.00000000000E+00 -0.13869966468E+04  0.13869966468E+04  0.50400001928E-02 0. -1.
    10030    2    1    2    0    0  0.00000000000E+00  0.00000000000E+00 -0.86082798585E+03  0.19131653078E+04  0.17085598245E+04 0.  0.
        2    1    3    3  502    0  0.38634353426E+00  0.16471158204E+03  0.50821981792E+03  0.53424473592E+03  0.25500000920E-02 0.  1.
       -2    1    3    3    0  502 -0.38634353426E+00 -0.16471158204E+03 -0.13690478038E+04  0.13789205719E+04  0.25500000920E-02 0. -1.
</event>
<event>
 5   0  0.1255362E-04  0.1734005E+04  0.7818609E-02  0.8742204E-01
       -2   -1    0    0    0  501  0.00000000000E+00  0.00000000000E+00  0.23243684769E+03  0.23243684770E+03  0.25500000920E-02 0. -1.
        2   -1    0    0  501    0  0.00000000000E+00  0.00000000000E+00 -0.32339680233E+04  0.32339680234E+04  0.25500000920E-02 0.  1.
    10030    2    1    2    0    0  0.00000000000E+00  0.00000000000E+00 -0.30015311757E+04  0.34664048711E+04  0.17340049976E+04 0.  0.
        1    1    3    3  502    0 -0.58890961097E+03  0.61286785186E+03 -0.18427872786E+04  0.20293561758E+04  0.50400001928E-02 0.  1.
       -1    1    3    3    0  502  0.58890961097E+03 -0.61286785186E+03 -0.11587438970E+04  0.14370486953E+04  0.50400001928E-02 0. -1.
</event>
<event>
 5   0  0.1333546E-04  0.1702748E+04  0.7818609E-02  0.8759799E-01
        2   -1    0    0  501    0  0.00000000000E+00  0.00000000000E+00  0.16872831527E+04  0.16872831527E+04  0.25500000920E-02 0.  1.
       -2   -1    0    0    0  501  0.00000000000E+00  0.00000000000E+00 -0.42958867441E+03  0.42958867442E+03  0.25500000920E-02 0. -1.
    10030    2    1    2    0    0  0.00000000000E+00  0.00000000000E+00  0.12576944783E+04  0.21168718271E+04  0.17027480529E+04 0.  0.
        5    1    3    3  502    0  0.70820514270E+03  0.35582272186E+03  0.24234853537E+03  0.82880590981E+03  0.46999998093E+01 0. -1.
       -5    1    3    3    0  502 -0.70820514270E+03 -0.35582272186E+03  0.10153459429E+04  0.12880659173E+04  0.46999998093E+01 0.  1.
</event>
<event>
 5   0  0.1285639E-04  0.1695309E+04  0.7818609E-02  0.8764044E-01
       -2   -1    0    0    0  501  0.00000000000E+00  0.00000000000E+00  0.11844571198E+04  0.11844571198E+04  0.25500000920E-02 0. -1.
        2   -1    0    0  501    0  0.00000000000E+00  0.00000000000E+00 -0.60662265037E+03  0.60662265037E+03  0.25500000920E-02 0.  1.
    10030    2    1    2    0    0  0.00000000000E+00  0.00000000000E+00  0.57783446946E+03  0.17910797702E+04  0.16953094317E+04 0.  0.
        4    1    3    3  502    0 -0.23899951360E+03  0.23253260815E+03 -0.53441748698E+03  0.62991733159E+03  0.12699999809E+01 0.  1.
       -4    1    3    3    0  502  0.23899951360E+03 -0.23253260815E+03  0.11122519564E+04  0.11611624386E+04  0.12699999809E+01 0. -1.
</event>
<event>
 5   0  0.6601906E-05  0.1699847E+04  0.7818609E-02  0.8761452E-01
        1   -1    0    0  501    0  0.00000000000E+00  0.00000000000E+00  0.12503467512E+04  0.12503467512E+04  0.50400001928E-02 0.  1.
       -1   -1    0    0    0  501  0.00000000000E+00  0.00000000000E+00 -0.57773570434E+03  0.57773570436E+03  0.50400001928E-02 0. -1.
    10030    2    1    2    0    0  0.00000000000E+00  0.00000000000E+00  0.67261104687E+03  0.18280824556E+04  0.16998470061E+04 0.  0.
        1    1    3    3  502    0 -0.58604638715E+03  0.57029662493E+03  0.58547662458E+03  0.10057193874E+04  0.50400001928E-02 0. -1.
       -1    1    3    3    0  502  0.58604638715E+03 -0.57029662493E+03  0.87134422296E+02  0.82236306816E+03  0.50400001928E-02 0.  1.
</event>
<event>
 5   0  0.1393870E-04  0.1696977E+04  0.7818609E-02  0.8763090E-01
       -2   -1    0    0    0  501  0.00000000000E+00  0.00000000000E+00  0.90547118250E+03  0.90547118250E+03  0.25500000920E-02 0. -1.
        2   -1    0    0  501    0  0.00000000000E+00  0.00000000000E+00 -0.79509183073E+03  0.79509183073E+03  0.25500000920E-02 0.  1.
    10030    2    1    2    0    0  0.00000000000E+00  0.00000000000E+00  0.11037935177E+03  0.17005630132E+04  0.16969770065E+04 0.  0.
        3    1    3    3  502    0 -0.15657191803E+03 -0.32128171083E+03 -0.71597924011E+03  0.80022683391E+03  0.10100000352E+00 0.  1.
       -3    1    3    3    0  502  0.15657191803E+03  0.32128171083E+03  0.82635859188E+03  0.90033617933E+03  0.10100000352E+00 0. -1.
</event>
<event>
 5   0  0.1255362E-04  0.1699998E+04  0.7818609E-02  0.8761365E-01
       -2   -1    0    0    0  501  0.00000000000E+00  0.00000000000E+00  0.63587455924E+03  0.63587455925E+03  0.25500000920E-02 0. -1.
        2   -1    0    0  501    0  0.00000000000E+00  0.00000000000E+00 -0.11362277308E+04  0.11362277308E+04  0.25500000920E-02 0.  1.
    10030    2    1    2    0    0  0.00000000000E+00  0.00000000000E+00 -0.50035317156E+03  0.17721022901E+04  0.16999980089E+04 0.  0.
        1    1    3    3  502    0 -0.40166413545E+03  0.20580920670E+03 -0.10010093298E+04  0.10980488084E+04  0.50400001928E-02 0.  1.
       -1    1    3    3    0  502  0.40166413545E+03 -0.20580920670E+03  0.50065615826E+03  0.67405348163E+03  0.50400001928E-02 0. -1.
</event>
<event>
 5   0  0.6564887E-05  0.1694096E+04  0.7818609E-02  0.8764739E-01
       -1   -1    0    0    0  501  0.00000000000E+00  0.00000000000E+00  0.70002135580E+03  0.70002135582E+03  0.50400001928E-02 0.  1.
        1   -1    0    0  501    0  0.00000000000E+00  0.00000000000E+00 -0.10249546468E+04  0.10249546468E+04  0.50400001928E-02 0. -1.
    10030    2    1    2    0    0  0.00000000000E+00  0.00000000000E+00 -0.32493329103E+03  0.17249760027E+04  0.16940957960E+04 0.  0.
        4    1    3    3  502    0 -0.62743158834E+03  0.11335285767E+03 -0.73027767363E+03  0.96944642033E+03  0.12699999809E+01 0. -1.
       -4    1    3    3    0  502  0.62743158834E+03 -0.11335285767E+03  0.40534438260E+03  0.75552958234E+03  0.12699999809E+01 0.  1.
</event>
<event>
 5   0  0.1393870E-04  0.1701753E+04  0.7818609E-02  0.8760365E-01
        2   -1    0    0  501    0  0.00000000000E+00  0.00000000000E+00  0.15293524471E+04  0.15293524471E+04  0.25500000920E-02 0. -1.
       -2   -1    0    0    0  501  0.00000000000E+00  0.00000000000E+00 -0.47339675302E+03  0.47339675303E+03  0.25500000920E-02 0.  1.
    10030    2    1    2    0    0  0.00000000000E+00  0.00000000000E+00  0.10559556940E+04  0.20027492001E+04  0.17017526056E+04 0.  0.
        3    1    3    3  502    0  0.30610378290E+03 -0.76746735979E+03  0.76710298074E+03  0.11274540645E+04  0.10100000352E+00 0. -1.
       -3    1    3    3    0  502 -0.30610378290E+03  0.76746735979E+03  0.28885271329E+03  0.87529513561E+03  0.10100000352E+00 0.  1.
</event>
<event>
 5   0  0.1255362E-04  0.1705946E+04  0.7818609E-02  0.8757981E-01
       -2   -1    0    0    0  501  0.00000000000E+00  0.00000000000E+00  0.46630616164E+03  0.46630616165E+03  0.25500000920E-02 0.  1.
        2   -1    0    0  501    0  0.00000000000E+00  0.00000000000E+00 -0.15602683942E+04  0.15602683942E+04  0.25500000920E-02 0. -1.
    10030    2    1    2    0    0  0.00000000000E+00  0.00000000000E+00 -0.10939622326E+04  0.20265745559E+04  0.17059457976E+04 0.  0.
        1    1    3    3  502    0 -0.63384258987E+03  0.55506334751E+03 -0.70507647267E+03  0.10986284999E+04  0.50400001928E-02 0. -1.
       -1    1    3    3    0  502  0.63384258987E+03 -0.55506334751E+03 -0.38888575991E+03  0.92794605596E+03  0.50400001928E-02 0.  1.
</event>
<event>
 5   0  0.6539134E-05  0.1699553E+04  0.7818609E-02  0.8761619E-01
        1   -1    0    0  501    0  0.00000000000E+00  0.00000000000E+00  0.93601263919E+03  0.93601263921E+03  0.50400001928E-02 0. -1.
       -1   -1    0    0    0  501  0.00000000000E+00  0.00000000000E+00 -0.77148547595E+03  0.77148547597E+03  0.50400001928E-02 0.  1.
    10030    2    1    2    0    0  0.00000000000E+00  0.00000000000E+00  0.16452716324E+03  0.17074981152E+04  0.16995530665E+04 0.  0.
        2    1    3    3  502    0  0.48726491006E+03  0.18097242816E+03 -0.59314546950E+03  0.78866955078E+03  0.25500000920E-02 0.  1.
       -2    1    3    3    0  502 -0.48726491006E+03 -0.18097242816E+03  0.75767263274E+03  0.91882856439E+03  0.25500000920E-02 0. -1.
</event>
<event>
 5   0  0.1333546E-04  0.1700072E+04  0.7818609E-02  0.8761323E-01
       -2   -1    0    0    0  501  0.00000000000E+00  0.00000000000E+00  0.77589624291E+03  0.77589624291E+03  0.25500000920E-02 0. -1.
        2   -1    0    0  501    0  0.00000000000E+00  0.00000000000E+00 -0.93125998784E+03  0.93125998785E+03  0.25500000920E-02 0.  1.
    10030    2    1    2    0    0  0.00000000000E+00  0.00000000000E+00 -0.15536374494E+03  0.17071562308E+04  0.17000719111E+04 0.  0.
        5    1    3    3  502    0 -0.80067113120E+03  0.38087932123E+02  0.20636446690E+03  0.82772781403E+03  0.46999998093E+01 0. -1.
       -5    1    3    3    0  502  0.80067113120E+03 -0.38087932123E+02 -0.36172821184E+03  0.87942841673E+03  0.46999998093E+01 0.  1.
</event>
<event>
 5   0  0.6601906E-05  0.1698116E+04  0.7818609E-02  0.8762439E-01
       -1   -1    0    0    0  501  0.00000000000E+00  0.00000000000E+00  0.11760597604E+04  0.11760597604E+04  0.50400001928E-02 0. -1.
        1   -1    0    0  501    0  0.00000000000E+00  0.00000000000E+00 -0.61297896984E+03  0.61297896986E+03  0.50400001928E-02 0.  1.
    10030    2    1    2    0    0  0.00000000000E+00  0.00000000000E+00  0.56308079056E+03  0.17890387303E+04  0.16981164865E+04 0.  0.
        1    1    3    3  502    0 -0.39907484637E+03 -0.21048444669E+03 -0.47623131883E+03  0.65601882928E+03  0.50400001928E-02 0.  1.
       -1    1    3    3    0  502  0.39907484637E+03  0.21048444669E+03  0.10393121094E+04  0.11330199010E+04  0.50400001928E-02 0. -1.
</event>
<event>
 5   0  0.1255362E-04  0.1698749E+04  0.7818609E-02  0.8762078E-01
        2   -1    0    0  501    0  0.00000000000E+00  0.00000000000E+00  0.13423857866E+04  0.13423857867E+04  0.25500000920E-02 0.  1.
       -2   -1    0    0    0  501  0.00000000000E+00  0.00000000000E+00 -0.53742901661E+03  0.53742901662E+03  0.25500000920E-02 0. -1.
    10030    2    1    2    0    0  0.00000000000E+00  0.00000000000E+00  0.80495677004E+03  0.18798148033E+04  0.16987490377E+04 0.  0.
        1    1    3    3  502    0 -0.70281339258E+03  0.39733089138E+03  0.69445521861E+03  0.10649349993E+04  0.50400001928E-02 0. -1.
       -1    1    3    3    0  502  0.70281339258E+03 -0.39733089138E+03  0.11050155143E+03  0.81487980398E+03  0.50400001928E-02 0.  1.
</event>
<event>
 5   0  0.1269175E-04  0.1696056E+04  0.7818609E-02  0.8763617E-01
        2   -1    0    0  501    0  0.00000000000E+00  0.00000000000E+00  0.68460339676E+03  0.68460339676E+03  0.25500000920E-02 0.  1.
       -2   -1    0    0    0  501  0.00000000000E+00  0.00000000000E+00 -0.10504642564E+04  0.10504642564E+04  0.25500000920E-02 0. -1.
    10030    2    1    2    0    0  0.00000000000E+00  0.00000000000E+00 -0.36586085960E+03  0.17350676531E+04  0.16960558930E+04 0.  0.
        2    1    3    3  502    0  0.39028715309E+03  0.63344255788E+03  0.23334175121E+03  0.77975759622E+03  0.25500000920E-02 0.  1.
       -2    1    3    3    0  502 -0.39028715309E+03 -0.63344255788E+03 -0.59920261081E+03  0.95531005690E+03  0.25500000920E-02 0. -1.
</event>
<event>
 5   0  0.6834837E-05  0.1712665E+04  0.7818609E-02  0.8754174E-01
        1   -1    0    0  501    0  0.00000000000E+00  0.00000000000E+00  0.74567990859E+03  0.74567990861E+03  0.50400001928E-02 0. -1.
       -1   -1    0    0    0  501  0.00000000000E+00  0.00000000000E+00 -0.98340515950E+03  0.98340515951E+03  0.50400001928E-02 0.  1.
    10030    2    1    2    0    0  0.00000000000E+00  0.00000000000E+00 -0.23772525091E+03  0.17290850681E+04  0.17126651389E+04 0.  0.
        5    1    3    3  502    0  0.48940049040E+03 -0.15569066193E+03 -0.81065539469E+03  0.95965445925E+03  0.46999998093E+01 0.  1.
       -5    1    3    3    0  502 -0.48940049040E+03  0.15569066193E+03  0.57293014378E+03  0.76943060887E+03  0.46999998093E+01 0. -1.
</event>
<event>
 5   0  0.6615842E-05  0.1695414E+04  0.7818609E-02  0.8763984E-01
       -1   -1    0    0    0  501  0.00000000000E+00  0.00000000000E+00  0.74925626737E+03  0.74925626739E+03  0.50400001928E-02 0.  1.
        1   -1    0    0  501    0  0.00000000000E+00  0.00000000000E+00 -0.95909416201E+03  0.95909416202E+03  0.50400001928E-02 0. -1.
    10030    2    1    2    0    0  0.00000000000E+00  0.00000000000E+00 -0.20983789464E+03  0.17083504294E+04  0.16954141817E+04 0.  0.
        3    1    3    3  502    0  0.12028587774E+03  0.25180941415E+03 -0.91148305504E+03  0.95324605599E+03  0.10100000352E+00 0. -1.
       -3    1    3    3    0  502 -0.12028587774E+03 -0.25180941415E+03  0.70164516040E+03  0.75510437342E+03  0.10100000352E+00 0.  1.
</event>
<event>
 5   0  0.1393870E-04  0.1697776E+04  0.7818609E-02  0.8762634E-01
        2   -1    0    0  501    0  0.00000000000E+00  0.00000000000E+00  0.13431491550E+04  0.13431491550E+04  0.25500000920E-02 0.  1.
       -2   -1    0    0    0  501  0.00000000000E+00  0.00000000000E+00 -0.53650818995E+03  0.53650818996E+03  0.25500000920E-02 0. -1.
    10030    2    1    2    0    0  0.00000000000E+00  0.00000000000E+00  0.80664096504E+03  0.18796573449E+04  0.16977756294E+04 0.  0.
        3    1    3    3  502    0 -0.52458626910E+02 -0.42907241094E+03 -0.40553244257E+03  0.59271545749E+03  0.10100000352E+00 0. -1.
       -3    1    3    3    0  502  0.52458626910E+02  0.42907241094E+03  0.12121734076E+04  0.12869418875E+04  0.10100000352E+00 0.  1.
</event>
<event>
 5   0  0.1333546E-04  0.1692964E+04  0.7818609E-02  0.8765388E-01
        2   -1    0    0  501    0  0.00000000000E+00  0.00000000000E+00  0.13581409399E+04  0.13581409399E+04  0.25500000920E-02 0. -1.
       -2   -1    0    0    0  501  0.00000000000E+00  0.00000000000E+00 -0.52758268125E+03  0.52758268125E+03  0.25500000920E-02 0.  1.
    10030    2    1    2    0    0  0.00000000000E+00  0.00000000000E+00  0.83055825868E+03  0.18857236212E+04  0.16929638373E+04 0.  0.
        5    1    3    3  502    0  0.45933849652E+03 -0.12545093500E+03  0.11948054354E+04  0.12862005714E+04  0.46999998093E+01 0. -1.
       -5    1    3    3    0  502 -0.45933849652E+03  0.12545093500E+03 -0.36424717671E+03  0.59952304977E+03  0.46999998093E+01 0.  1.
</event>
<event>
 5   0  0.6834837E-05  0.1776279E+04  0.7818609E-02  0.8719017E-01
        1   -1    0    0  501    0  0.00000000000E+00  0.00000000000E+00  0.10138156335E+04  0.10138156335E+04  0.50400001928E-02 0.  1.
       -1   -1    0    0    0  501  0.00000000000E+00  0.00000000000E+00 -0.77804267800E+03  0.77804267802E+03  0.50400001928E-02 0. -1.
    10030    2    1    2    0    0  0.00000000000E+00  0.00000000000E+00  0.23577295549E+03  0.17918583115E+04  0.17762790665E+04 0.  0.
        5    1    3    3  502    0  0.16518612368E+03 -0.87262112611E+03  0.11389509262E+03  0.89540396878E+03  0.46999998093E+01 0.  1.
       -5    1    3    3    0  502 -0.16518612368E+03  0.87262112611E+03  0.12187786287E+03  0.89645434275E+03  0.46999998093E+01 0. -1.
</event>
<event>
 5   0  0.1255362E-04  0.1679004E+04  0.7818609E-02  0.8773431E-01
        2   -1    0    0  501    0  0.00000000000E+00  0.00000000000E+00  0.17769980717E+04  0.17769980717E+04  0.25500000920E-02 0.  1.
       -2   -1    0    0    0  501  0.00000000000E+00  0.00000000000E+00 -0.39660343971E+03  0.39660343972E+03  0.25500000920E-02 0. -1.
    10030    2    1    2    0    0  0.00000000000E+00  0.00000000000E+00  0.13803946320E+04  0.21736015114E+04  0.16790039281E+04 0.  0.
        1    1    3    3  502    0 -0.83169344979E+02 -0.54342800336E+03  0.15115480384E+04  0.16084180449E+04  0.50400001928E-02 0.  1.
       -1    1    3    3    0  502  0.83169344979E+02  0.54342800336E+03 -0.13115340641E+03  0.56518346651E+03  0.50400001928E-02 0. -1.
</event>
<event>
 5   0  0.6601906E-05  0.1701273E+04  0.7818609E-02  0.8760638E-01
        1   -1    0    0  501    0  0.00000000000E+00  0.00000000000E+00  0.88875919262E+03  0.88875919263E+03  0.50400001928E-02 0. -1.
       -1   -1    0    0    0  501  0.00000000000E+00  0.00000000000E+00 -0.81414937476E+03  0.81414937477E+03  0.50400001928E-02 0.  1.
    10030    2    1    2    0    0  0.00000000000E+00  0.00000000000E+00  0.74609817862E+02  0.17029085674E+04  0.17012733361E+04 0.  0.
        1    1    3    3  502    0  0.31547815851E+02 -0.19420510480E+03 -0.79106038350E+03  0.81516097661E+03  0.50400001928E-02 0.  1.
       -1    1    3    3    0  502 -0.31547815851E+02  0.19420510480E+03  0.86567020136E+03  0.88774759080E+03  0.50400001928E-02 0. -1.
</event>
<event>
 5   0  0.1393870E-04  0.1701922E+04  0.7818609E-02  0.8760269E-01
       -2   -1    0    0    0  501  0.00000000000E+00  0.00000000000E+00  0.52892000333E+03  0.52892000333E+03  0.25500000920E-02 0.  1.
        2   -1    0    0  501    0  0.00000000000E+00  0.00000000000E+00 -0.13690822821E+04  0.13690822821E+04  0.25500000920E-02 0. -1.
    10030    2    1    2    0    0  0.00000000000E+00  0.00000000000E+00 -0.84016227873E+03  0.18980022854E+04  0.17019224485E+04 0.  0.
        3    1    3    3  502    0 -0.83981953182E+03 -0.65570200602E+02 -0.55454937862E+03  0.10085243283E+04  0.10100000352E+00 0. -1.
       -3    1    3    3    0  502  0.83981953182E+03  0.65570200602E+02 -0.28561290011E+03  0.88947795709E+03  0.10100000352E+00 0.  1.
</event>
<event>
 5   0  0.1285639E-04  0.1698766E+04  0.7818609E-02  0.8762068E-01
        2   -1    0    0  501    0  0.00000000000E+00  0.00000000000E+00  0.21643144133E+04  0.21643144133E+04  0.25500000920E-02 0. -1.
       -2   -1    0    0    0  501  0.00000000000E+00  0.00000000000E+00 -0.33333947753E+03  0.33333947754E+03  0.25500000920E-02 0.  1.
    10030    2    1    2    0    0  0.00000000000E+00  0.00000000000E+00  0.18309749357E+04  0.24976538908E+04  0.16987659471E+04 0.  0.
        4    1    3    3  502    0 -0.30539721586E+03  0.35216470663E+03 -0.12847270093E+03  0.48352278937E+03  0.12699999809E+01 0.  1.
       -4    1    3    3    0  502  0.30539721586E+03 -0.35216470663E+03  0.19594476367E+04  0.20141311014E+04  0.12699999809E+01 0. -1.
</event>
<event>
 5   0  0.1269175E-04  0.1653706E+04  0.7818609E-02  0.8788217E-01
        2   -1    0    0  501    0  0.00000000000E+00  0.00000000000E+00  0.91280346128E+03  0.91280346128E+03  0.25500000920E-02 0. -1.
       -2   -1    0    0    0  501  0.00000000000E+00  0.00000000000E+00 -0.74899588051E+03  0.74899588051E+03  0.25500000920E-02 0.  1.
    10030    2    1    2    0    0  0.00000000000E+00  0.00000000000E+00  0.16380758077E+03  0.16617993418E+04  0.16537061797E+04 0.  0.
        2    1    3    3  502    0 -0.19470267986E+02 -0.61531887520E+03 -0.47278458545E+03  0.77622269598E+03  0.25500000920E-02 0.  1.
       -2    1    3    3    0  502  0.19470267986E+02  0.61531887520E+03  0.63659216622E+03  0.88557664581E+03  0.25500000920E-02 0. -1.
</event>
<event>
 5   0  0.1269175E-04  0.1682209E+04  0.7818609E-02  0.8771577E-01
        2   -1    0    0  501    0  0.00000000000E+00  0.00000000000E+00  0.14543567653E+04  0.14543567653E+04  0.25500000920E-02 0. -1.
       -2   -1    0    0    0  501  0.00000000000E+00  0.00000000000E+00 -0.48643983363E+03  0.48643983364E+03  0.25500000920E-02 0.  1.
    10030    2    1    2    0    0  0.00000000000E+00  0.00000000000E+00  0.96791693168E+03  0.19407965990E+04  0.16822093365E+04 0.  0.
        2    1    3    3  502    0 -0.81278887703E+03 -0.21611981547E+03  0.49678134909E+03  0.97679334665E+03  0.25500000920E-02 0. -1.
       -2    1    3    3    0  502  0.81278887703E+03  0.21611981547E+03  0.47113558259E+03  0.96400325230E+03  0.25500000920E-02 0.  1.
</event>
<event>
 5   0  0.1255362E-04  0.1698026E+04  0.7818609E-02  0.8762491E-01
       -2   -1    0    0    0  501  0.00000000000E+00  0.00000000000E+00  0.46122366760E+03  0.46122366760E+03  0.25500000920E-02 0.  1.
        2   -1    0    0  501    0  0.00000000000E+00  0.00000000000E+00 -0.15628496400E+04  0.15628496401E+04  0.25500000920E-02 0. -1.
    10030    2    1    2    0    0  0.00000000000E+00  0.00000000000E+00 -0.11016259725E+04  0.20240733077E+04  0.16980261987E+04 0.  0.
        1    1    3    3  502    0 -0.73119158070E+03  0.20449584953E+03 -0.97904303423E+02  0.76553571622E+03  0.50400001928E-02 0.  1.
       -1    1    3    3    0  502  0.73119158070E+03 -0.20449584953E+03 -0.10037216690E+04  0.12585375914E+04  0.50400001928E-02 0. -1.
</event>
<event>
 5   0  0.6834837E-05  0.1701479E+04  0.7818609E-02  0.8760521E-01
       -1   -1    0    0    0  501  0.00000000000E+00  0.00000000000E+00  0.48699377279E+03  0.48699377281E+03  0.50400001928E-02 0.  1.
        1   -1    0    0  501    0  0.00000000000E+00  0.00000000000E+00 -0.14861741660E+04  0.14861741660E+04  0.50400001928E-02 0. -1.
    10030    2    1    2    0    0  0.00000000000E+00  0.00000000000E+00 -0.99918039323E+03  0.19731679388E+04  0.17014788440E+04 0.  0.
        5    1    3    3  502    0 -0.69791287874E+03  0.32964996614E+03 -0.84717059343E+02  0.77649890961E+03  0.46999998093E+01 0. -1.
       -5    1    3    3    0  502  0.69791287874E+03 -0.32964996614E+03 -0.91446333389E+03  0.11966690292E+04  0.46999998093E+01 0.  1.
</event>
<event>
 5   0  0.6601906E-05  0.1699537E+04  0.7818609E-02  0.8761628E-01
       -1   -1    0    0    0  501  0.00000000000E+00  0.00000000000E+00  0.59581859597E+03  0.59581859599E+03  0.50400001928E-02 0.  1.
        1   -1    0    0  501    0  0.00000000000E+00  0.00000000000E+00 -0.12119571108E+04  0.12119571108E+04  0.50400001928E-02 0. -1.
    10030    2    1    2    0    0  0.00000000000E+00  0.00000000000E+00 -0.61613851486E+03  0.18077757068E+04  0.16995370948E+04 0.  0.
        1    1    3    3  502    0 -0.42889881052E+03 -0.14258346682E+03 -0.10734971662E+04  0.11647662429E+04  0.50400001928E-02 0. -1.
       -1    1    3    3    0  502  0.42889881052E+03  0.14258346682E+03  0.45735865138E+03  0.64300946392E+03  0.50400001928E-02 0.  1.
</event>
<event>
 5   0  0.1255362E-04  0.1697627E+04  0.7818609E-02  0.8762719E-01
       -2   -1    0    0    0  501  0.00000000000E+00  0.00000000000E+00  0.65118099299E+03  0.65118099299E+03  0.25500000920E-02 0. -1.
        2   -1    0    0  501    0  0.00000000000E+00  0.00000000000E+00 -0.11064275318E+04  0.11064275318E+04  0.25500000920E-02 0.  1.
    10030    2    1    2    0    0  0.00000000000E+00  0.00000000000E+00 -0.45524653883E+03  0.17576085248E+04  0.16976272604E+04 0.  0.
        1    1    3    3  502    0  0.17726618261E+03  0.80970381585E+03 -0.38293240085E+02  0.82976499153E+03  0.50400001928E-02 0. -1.
       -1    1    3    3    0  502 -0.17726618261E+03 -0.80970381585E+03 -0.41695329875E+03  0.92784353329E+03  0.50400001928E-02 0.  1.
</event>
<event>
 5   0  0.6539134E-05  0.1701277E+04  0.7818609E-02  0.8760636E-01
       -1   -1    0    0    0  501  0.00000000000E+00  0.00000000000E+00  0.49281485223E+03  0.49281485226E+03  0.50400001928E-02 0.  1.
        1   -1    0    0  501    0  0.00000000000E+00  0.00000000000E+00 -0.14682719113E+04  0.14682719113E+04  0.50400001928E-02 0. -1.
    10030    2    1    2    0    0  0.00000000000E+00  0.00000000000E+00 -0.97545705909E+03  0.19610867636E+04  0.17012774084E+04 0.  0.
        2    1    3    3  502    0  0.41191934817E+03  0.35306041449E+03 -0.12429604999E+04  0.13562005788E+04  0.25500000920E-02 0. -1.
       -2    1    3    3    0  502 -0.41191934817E+03 -0.35306041449E+03  0.26750344080E+03  0.60488618477E+03  0.25500000920E-02 0.  1.
</event>
<event>
 5   0  0.6615842E-05  0.1696614E+04  0.7818609E-02  0.8763298E-01
       -1   -1    0    0    0  501  0.00000000000E+00  0.00000000000E+00  0.63771016535E+03  0.63771016537E+03  0.50400001928E-02 0. -1.
        1   -1    0    0  501    0  0.00000000000E+00  0.00000000000E+00 -0.11284506252E+04  0.11284506252E+04  0.50400001928E-02 0.  1.
    10030    2    1    2    0    0  0.00000000000E+00  0.00000000000E+00 -0.49074045982E+03  0.17661607905E+04  0.16966136093E+04 0.  0.
        3    1    3    3  502    0  0.81543012027E+03  0.11639057605E+03 -0.34196699479E+02  0.82440431324E+03  0.10100000352E+00 0. -1.
       -3    1    3    3    0  502 -0.81543012027E+03 -0.11639057605E+03 -0.45654376034E+03  0.94175647730E+03  0.10100000352E+00 0.  1.
</event>
<event>
 5   0  0.6564887E-05  0.1686586E+04  0.7818609E-02  0.8769052E-01
       -1   -1    0    0    0  501  0.00000000000E+00  0.00000000000E+00  0.13286933361E+04  0.13286933361E+04  0.50400001928E-02 0. -1.
        1   -1    0    0  501    0  0.00000000000E+00  0.00000000000E+00 -0.53521999187E+03  0.53521999189E+03  0.50400001928E-02 0.  1.
    10030    2    1    2    0    0  0.00000000000E+00  0.00000000000E+00  0.79347334421E+03  0.18639133280E+04  0.16865861811E+04 0.  0.
        4    1    3    3  502    0 -0.27098708755E+03  0.94362902880E+02 -0.47960723200E+03  0.55889450610E+03  0.12699999809E+01 0.  1.
       -4    1    3    3    0  502  0.27098708755E+03 -0.94362902880E+02  0.12730805762E+04  0.13050188219E+04  0.12699999809E+01 0. -1.
</event>
<event>
 5   0  0.1255362E-04  0.1708796E+04  0.7818609E-02  0.8756363E-01
       -2   -1    0    0    0  501  0.00000000000E+00  0.00000000000E+00  0.60400642115E+03  0.60400642115E+03  0.25500000920E-02 0.  1.
        2   -1    0    0  501    0  0.00000000000E+00  0.00000000000E+00 -0.12085898177E+04  0.12085898177E+04  0.25500000920E-02 0. -1.
    10030    2    1    2    0    0  0.00000000000E+00  0.00000000000E+00 -0.60458339659E+03  0.18125962389E+04  0.17087960796E+04 0.  0.
        1    1    3    3  502    0 -0.79879859235E+03  0.30252290718E+03 -0.28116423451E+03  0.89925114807E+03  0.50400001928E-02 0.  1.
       -1    1    3    3    0  502  0.79879859235E+03 -0.30252290718E+03 -0.32341916208E+03  0.91334509082E+03  0.50400001928E-02 0. -1.
</event>
<event>
 5   0  0.6539134E-05  0.1712547E+04  0.7818609E-02  0.8754240E-01
       -1   -1    0    0    0  501  0.00000000000E+00  0.00000000000E+00  0.38301753851E+03  0.38301753855E+03  0.50400001928E-02 0.  1.
        1   -1    0    0  501    0  0.00000000000E+00  0.00000000000E+00 -0.19142846332E+04  0.19142846332E+04  0.50400001928E-02 0. -1.
    10030    2    1    2    0    0  0.00000000000E+00  0.00000000000E+00 -0.15312670947E+04  0.22973021717E+04  0.17125473287E+04 0.  0.
        2    1    3    3  502    0  0.48414371445E+03 -0.48901009473E+03 -0.82046848515E+02  0.69300627295E+03  0.25500000920E-02 0.  1.
       -2    1    3    3    0  502 -0.48414371445E+03  0.48901009473E+03 -0.14492202462E+04  0.16042958988E+04  0.25500000920E-02 0. -1.
</event>
<event>
 5   0  0.6834837E-05  0.1702563E+04  0.7818609E-02  0.8759904E-01
       -1   -1    0    0    0  501  0.00000000000E+00  0.00000000000E+00  0.75431342217E+03  0.75431342219E+03  0.50400001928E-02 0. -1.
        1   -1    0    0  501    0  0.00000000000E+00  0.00000000000E+00 -0.96071500537E+03  0.96071500538E+03  0.50400001928E-02 0.  1.
    10030    2    1    2    0    0  0.00000000000E+00  0.00000000000E+00 -0.20640158320E+03  0.17150284276E+04  0.17025630367E+04 0.  0.
        5    1    3    3  502    0  0.39849269338E+02 -0.84352694274E+03  0.49747841011E+01  0.84449541495E+03  0.46999998093E+01 0. -1.
       -5    1    3    3    0  502 -0.39849269338E+02  0.84352694274E+03 -0.21137636730E+03  0.87053301261E+03  0.46999998093E+01 0.  1.
</event>
<event>
 5   0  0.6834837E-05  0.1699715E+04  0.7818609E-02  0.8761527E-01
        1   -1    0    0  501    0  0.00000000000E+00  0.00000000000E+00  0.16350389827E+04  0.16350389827E+04  0.50400001928E-02 0.  1.
       -1   -1    0    0    0  501  0.00000000000E+00  0.00000000000E+00 -0.44173740876E+03  0.44173740879E+03  0.50400001928E-02 0. -1.
    10030    2    1    2    0    0  0.00000000000E+00  0.00000000000E+00  0.11933015740E+04  0.20767763915E+04  0.16997151332E+04 0.  0.
        5    1    3    3  502    0  0.81905139396E+03 -0.86795966848E+02  0.34077252475E+03  0.89136228854E+03  0.46999998093E+01 0. -1.
       -5    1    3    3    0  502 -0.81905139396E+03  0.86795966848E+02  0.85252904922E+03  0.11854141030E+04  0.46999998093E+01 0.  1.
</event>
<event>
 5   0  0.1255362E-04  0.1702052E+04  0.7818609E-02  0.8760195E-01
        2   -1    0    0  501    0  0.00000000000E+00  0.00000000000E+00  0.16244368843E+04  0.16244368843E+04  0.25500000920E-02 0.  1.
       -2   -1    0    0    0  501  0.00000000000E+00  0.00000000000E+00 -0.44584390349E+03  0.44584390350E+03  0.25500000920E-02 0. -1.
    10030    2    1    2    0    0  0.00000000000E+00  0.00000000000E+00  0.11785929808E+04  0.20702807878E+04  0.17020520339E+04 0.  0.
        1    1    3    3  502    0 -0.83835650722E+03 -0.96949758800E+02  0.45602829611E+03  0.95927196133E+03  0.50400001928E-02 0. -1.
       -1    1    3    3    0  502  0.83835650722E+03  0.96949758800E+02  0.72256468473E+03  0.11110088265E+04  0.50400001928E-02 0.  1.
</event>
<event>
 5   0  0.6834837E-05  0.1714443E+04  0.7818609E-02  0.8753170E-01
        1   -1    0    0  501    0  0.00000000000E+00  0.00000000000E+00  0.10086416444E+04  0.10086416444E+04  0.50400001928E-02 0.  1.
       -1   -1    0    0    0  501  0.00000000000E+00  0.00000000000E+00 -0.72853256471E+03  0.72853256473E+03  0.50400001928E-02 0. -1.
    10030    2    1    2    0    0  0.00000000000E+00  0.00000000000E+00  0.28010907964E+03  0.17371742091E+04  0.17144425147E+04 0.  0.
        5    1    3    3  502    0 -0.41922419820E+03 -0.39397738834E+03  0.78396372295E+03  0.97241365672E+03  0.46999998093E+01 0.  1.
       -5    1    3    3    0  502  0.41922419820E+03  0.39397738834E+03 -0.50385464331E+03  0.76476055237E+03  0.46999998093E+01 0. -1.
</event>
<event>
 5   0  0.1269175E-04  0.1707715E+04  0.7818609E-02  0.8756976E-01
       -2   -1    0    0    0  501  0.00000000000E+00  0.00000000000E+00  0.76117263199E+03  0.76117263199E+03  0.25500000920E-02 0.  1.
        2   -1    0    0  501    0  0.00000000000E+00  0.00000000000E+00 -0.95782850130E+03  0.95782850130E+03  0.25500000920E-02 0. -1.
    10030    2    1    2    0    0  0.00000000000E+00  0.00000000000E+00 -0.19665586932E+03  0.17190011333E+04  0.17077152471E+04 0.  0.
        2    1    3    3  502    0  0.44449263667E+03 -0.72903961679E+03 -0.97711988540E+02  0.85943010164E+03  0.25500000920E-02 0. -1.
       -2    1    3    3    0  502 -0.44449263667E+03  0.72903961679E+03 -0.98943880775E+02  0.85957103165E+03  0.25500000920E-02 0.  1.
</event>
<event>
 5   0  0.6539134E-05  0.1698915E+04  0.7818609E-02  0.8761984E-01
        1   -1    0    0  501    0  0.00000000000E+00  0.00000000000E+00  0.15668329244E+04  0.15668329244E+04  0.50400001928E-02 0.  1.
       -1   -1    0    0    0  501  0.00000000000E+00  0.00000000000E+00 -0.46053276233E+03  0.46053276235E+03  0.50400001928E-02 0. -1.
    10030    2    1    2    0    0  0.00000000000E+00  0.00000000000E+00  0.11063001621E+04  0.20273656867E+04  0.16989148240E+04 0.  0.
        2    1    3    3  502    0  0.83204771297E-01  0.42476163531E+03  0.14310024807E+04  0.14927124819E+04  0.25500000920E-02 0.  1.
       -2    1    3    3    0  502 -0.83204771297E-01 -0.42476163531E+03 -0.32470231864E+03  0.53465320488E+03  0.25500000920E-02 0. -1.
</event>
<event>
 5   0  0.1333546E-04  0.1701748E+04  0.7818609E-02  0.8760368E-01
       -2   -1    0    0    0  501  0.00000000000E+00  0.00000000000E+00  0.59403952049E+03  0.59403952049E+03  0.25500000920E-02 0. -1.
        2   -1    0    0  501    0  0.00000000000E+00  0.00000000000E+00 -0.12187516603E+04  0.12187516603E+04  0.25500000920E-02 0.  1.
    10030    2    1    2    0    0  0.00000000000E+00  0.00000000000E+00 -0.62471213983E+03  0.18127911808E+04  0.17017481034E+04 0.  0.
        5    1    3    3  502    0 -0.67480652402E+01  0.63277997898E+03  0.29353613947E+03  0.69759701358E+03  0.46999998093E+01 0.  1.
       -5    1    3    3    0  502  0.67480652402E+01 -0.63277997898E+03 -0.91824827929E+03  0.11151941672E+04  0.46999998093E+01 0. -1.
</event>
<event>
 5   0  0.1285639E-04  0.1699274E+04  0.7818609E-02  0.8761779E-01
        2   -1    0    0  501    0  0.00000000000E+00  0.00000000000E+00  0.20869130884E+04  0.20869130884E+04  0.25500000920E-02 0.  1.
       -2   -1    0    0    0  501  0.00000000000E+00  0.00000000000E+00 -0.34590947286E+03  0.34590947287E+03  0.25500000920E-02 0. -1.
    10030    2    1    2    0    0  0.00000000000E+00  0.00000000000E+00  0.17410036156E+04  0.24328225613E+04  0.16992739701E+04 0.  0.
        4    1    3    3  502    0 -0.54544815377E+02 -0.79466730174E+03  0.44722163281E+03  0.91349880082E+03  0.12699999809E+01 0. -1.
       -4    1    3    3    0  502  0.54544815377E+02  0.79466730174E+03  0.12937819828E+04  0.15193237605E+04  0.12699999809E+01 0.  1.
</event>
<event>
 5   0  0.1285639E-04  0.1696325E+04  0.7818609E-02  0.8763463E-01
       -2   -1    0    0    0  501  0.00000000000E+00  0.00000000000E+00  0.63756949097E+03  0.63756949097E+03  0.25500000920E-02 0.  1.
        2   -1    0    0  501    0  0.00000000000E+00  0.00000000000E+00 -0.11283150536E+04  0.11283150536E+04  0.25500000920E-02 0. -1.
    10030    2    1    2    0    0  0.00000000000E+00  0.00000000000E+00 -0.49074556263E+03  0.17658845446E+04  0.16963245614E+04 0.  0.
        4    1    3    3  502    0 -0.21524642346E+03  0.12396484076E+03  0.59885658293E+03  0.64832794508E+03  0.12699999809E+01 0.  1.
       -4    1    3    3    0  502  0.21524642346E+03 -0.12396484076E+03 -0.10896021456E+04  0.11175565995E+04  0.12699999809E+01 0. -1.
</event>
<event>
 5   0  0.6834837E-05  0.1713271E+04  0.7818609E-02  0.8753832E-01
        1   -1    0    0  501    0  0.00000000000E+00  0.00000000000E+00  0.13560124046E+04  0.13560124046E+04  0.50400001928E-02 0. -1.
       -1   -1    0    0    0  501  0.00000000000E+00  0.00000000000E+00 -0.54116336131E+03  0.54116336133E+03  0.50400001928E-02 0.  1.
    10030    2    1    2    0    0  0.00000000000E+00  0.00000000000E+00  0.81484904329E+03  0.18971757659E+04  0.17132708261E+04 0.  0.
        5    1    3    3  502    0 -0.63496891121E+03  0.26378712689E+03 -0.15833156470E+03  0.70559204991E+03  0.46999998093E+01 0.  1.
       -5    1    3    3    0  502  0.63496891121E+03 -0.26378712689E+03  0.97318060799E+03  0.11915837160E+04  0.46999998093E+01 0. -1.
</event>
<event>
 5   0  0.4720875E-05  0.1702202E+04  0.7818609E-02  0.8760110E-01
        3   -1    0    0  501    0  0.00000000000E+00  0.00000000000E+00  0.42856110729E+03  0.42856111919E+03  0.10100000352E+00 0.  1.
       -3   -1    0    0    0  501  0.00000000000E+00  0.00000000000E+00 -0.16902434434E+04  0.16902434465E+04  0.10100000352E+00 0. -1.
    10030    2    1    2    0    0  0.00000000000E+00  0.00000000000E+00 -0.12616823362E+04  0.21188045657E+04  0.17022016538E+04 0.  0.
        4    1    3    3  502    0 -0.54669931911E+03  0.46299059418E+03 -0.12027877262E+04  0.13999787009E+04  0.12699999809E+01 0. -1.
       -4    1    3    3    0  502  0.54669931911E+03 -0.46299059418E+03 -0.58894609928E+02  0.71882586472E+03  0.12699999809E+01 0.  1.
</event>
<event>
 5   0  0.6834837E-05  0.1703165E+04  0.7818609E-02  0.8759561E-01
        1   -1    0    0  501    0  0.00000000000E+00  0.00000000000E+00  0.12612208773E+04  0.12612208773E+04  0.50400001928E-02 0. -1.
       -1   -1    0    0    0  501  0.00000000000E+00  0.00000000000E+00 -0.57499286257E+03  0.57499286259E+03  0.50400001928E-02 0.  1.
    10030    2    1    2    0    0  0.00000000000E+00  0.00000000000E+00  0.68622801471E+03  0.18362137399E+04  0.17031652916E+04 0.  0.
        5    1    3    3  502    0  0.86716807374E+02  0.84713496234E+03  0.33915810805E+03  0.91662847510E+03  0.46999998093E+01 0.  1.
       -5    1    3    3    0  502 -0.86716807374E+02 -0.84713496234E+03  0.34706990666E+03  0.91958526479E+03  0.46999998093E+01 0. -1.
</event>
<event>
 5   0  0.1285639E-04  0.1694928E+04  0.7818609E-02  0.8764262E-01
       -2   -1    0    0    0  501  0.00000000000E+00  0.00000000000E+00  0.11984174965E+04  0.11984174965E+04  0.25500000920E-02 0. -1.
        2   -1    0    0  501    0  0.00000000000E+00  0.00000000000E+00 -0.59928667922E+03  0.59928667923E+03  0.25500000920E-02 0.  1.
    10030    2    1    2    0    0  0.00000000000E+00  0.00000000000E+00  0.59913081727E+03  0.17977041757E+04  0.16949284844E+04 0.  0.
        4    1    3    3  502    0  0.82763763367E+02 -0.69293831444E+03 -0.21040223039E+03  0.72889235117E+03  0.12699999809E+01 0.  1.
       -4    1    3    3    0  502 -0.82763763367E+02  0.69293831444E+03  0.80953304766E+03  0.10688118245E+04  0.12699999809E+01 0. -1.
</event>
<event>
 5   0  0.1333546E-04  0.1703891E+04  0.7818609E-02  0.8759149E-01
        2   -1    0    0  501    0  0.00000000000E+00  0.00000000000E+00  0.42628775379E+03  0.42628775380E+03  0.25500000920E-02 0. -1.
       -2   -1    0    0    0  501  0.00000000000E+00  0.00000000000E+00 -0.17026310525E+04  0.17026310525E+04  0.25500000920E-02 0.  1.
    10030    2    1    2    0    0  0.00000000000E+00  0.00000000000E+00 -0.12763432987E+04  0.21289188063E+04  0.17038905680E+04 0.  0.
        5    1    3    3  502    0  0.31463185468E+03 -0.41183271406E+03  0.20665075562E+03  0.55796596057E+03  0.46999998093E+01 0. -1.
       -5    1    3    3    0  502 -0.31463185468E+03  0.41183271406E+03 -0.14829940543E+04  0.15709528457E+04  0.46999998093E+01 0.  1.
</event>
<event>
 5   0  0.6615842E-05  0.1702696E+04  0.7818609E-02  0.8759828E-01
       -1   -1    0    0    0  501  0.00000000000E+00  0.00000000000E+00  0.71468429139E+03  0.71468429141E+03  0.50400001928E-02 0.  1.
        1   -1    0    0  501    0  0.00000000000E+00  0.00000000000E+00 -0.10141453655E+04  0.10141453655E+04  0.50400001928E-02 0. -1.
    10030    2    1    2    0    0  0.00000000000E+00  0.00000000000E+00 -0.29946107410E+03  0.17288296569E+04  0.17026964050E+04 0.  0.
        3    1    3    3  502    0 -0.90060786178E+02  0.78896988740E+03  0.16191572843E+03  0.81043268798E+03  0.10100000352E+00 0.  1.
       -3    1    3    3    0  502  0.90060786178E+02 -0.78896988740E+03 -0.46137680253E+03  0.91839696893E+03  0.10100000352E+00 0. -1.
</event>
<event>
 5   0  0.1285639E-04  0.1704837E+04  0.7818609E-02  0.8758611E-01
        2   -1    0    0  501    0  0.00000000000E+00  0.00000000000E+00  0.18625318389E+04  0.18625318389E+04  0.25500000920E-02 0. -1.
       -2   -1    0    0    0  501  0.00000000000E+00  0.00000000000E+00 -0.39012326711E+03  0.39012326712E+03  0.25500000920E-02 0.  1.
    10030    2    1    2    0    0  0.00000000000E+00  0.00000000000E+00  0.14724085718E+04  0.22526551061E+04  0.17048366562E+04 0.  0.
        4    1    3    3  502    0  0.32356899352E+03  0.69718341630E+03  0.24918316213E+03  0.80799472197E+03  0.12699999809E+01 0.  1.
       -4    1    3    3    0  502 -0.32356899352E+03 -0.69718341630E+03  0.12232254097E+04  0.14446603841E+04  0.12699999809E+01 0. -1.
</event>
<event>
 5   0  0.1255362E-04  0.1701390E+04  0.7818609E-02  0.8760572E-01
       -2   -1    0    0    0  501  0.00000000000E+00  0.00000000000E+00  0.34941729224E+03  0.34941729225E+03  0.25500000920E-02 0.  1.
        2   -1    0    0  501    0  0.00000000000E+00  0.00000000000E+00 -0.20711107647E+04  0.20711107647E+04  0.25500000920E-02 0. -1.
    10030    2    1    2    0    0  0.00000000000E+00  0.00000000000E+00 -0.17216934725E+04  0.24205280570E+04  0.17013899205E+04 0.  0.
        1    1    3    3  502    0 -0.69406627445E+03 -0.43449563544E+03 -0.53280489449E+03  0.97693167937E+03  0.50400001928E-02 0.  1.
       -1    1    3    3    0  502  0.69406627445E+03  0.43449563544E+03 -0.11888885780E+04  0.14435963776E+04  0.50400001928E-02 0. -1.
</event>
<event>
 5   0  0.6615842E-05  0.1711034E+04  0.7818609E-02  0.8755096E-01
        1   -1    0    0  501    0  0.00000000000E+00  0.00000000000E+00  0.70910006577E+03  0.70910006578E+03  0.50400001928E-02 0.  1.
       -1   -1    0    0    0  501  0.00000000000E+00  0.00000000000E+00 -0.10321670330E+04  0.10321670330E+04  0.50400001928E-02 0. -1.
    10030    2    1    2    0    0  0.00000000000E+00  0.00000000000E+00 -0.32306696726E+03  0.17412670988E+04  0.17110344369E+04 0.  0.
        3    1    3    3  502    0 -0.63746015769E+03  0.21769711875E+03  0.37519631798E+03  0.77105108480E+03  0.10100000352E+00 0.  1.
       -3    1    3    3    0  502  0.63746015769E+03 -0.21769711875E+03 -0.69826328524E+03  0.97021601402E+03  0.10100000352E+00 0. -1.
</event>
<event>
 5   0  0.1393870E-04  0.1684129E+04  0.7818609E-02  0.8770468E-01
        2   -1    0    0  501    0  0.00000000000E+00  0.00000000000E+00  0.11816750102E+04  0.11816750102E+04  0.25500000920E-02 0. -1.
       -2   -1    0    0    0  501  0.00000000000E+00  0.00000000000E+00 -0.60005718582E+03  0.60005718582E+03  0.25500000920E-02 0.  1.
    10030    2    1    2    0    0  0.00000000000E+00  0.00000000000E+00  0.58161782442E+03  0.17817321961E+04  0.16841289514E+04 0.  0.
        3    1    3    3  502    0  0.10888176618E+03 -0.40498492587E+03  0.10633365153E+04  0.11430453115E+04  0.10100000352E+00 0. -1.
       -3    1    3    3    0  502 -0.10888176618E+03  0.40498492587E+03 -0.48171869086E+03  0.63868688457E+03  0.10100000352E+00 0.  1.
</event>
<event>
 5   0  0.6615842E-05  0.1701946E+04  0.7818609E-02  0.8760255E-01
       -1   -1    0    0    0  501  0.00000000000E+00  0.00000000000E+00  0.41835867157E+03  0.41835867160E+03  0.50400001928E-02 0.  1.
        1   -1    0    0  501    0  0.00000000000E+00  0.00000000000E+00 -0.17309434539E+04  0.17309434539E+04  0.50400001928E-02 0. -1.
    10030    2    1    2    0    0  0.00000000000E+00  0.00000000000E+00 -0.13125847824E+04  0.21493021255E+04  0.17019461848E+04 0.  0.
        3    1    3    3  502    0  0.23992880245E+03 -0.77372929834E+03 -0.32714537652E+03  0.87364006601E+03  0.10100000352E+00 0.  1.
       -3    1    3    3    0  502 -0.23992880245E+03  0.77372929834E+03 -0.98543940583E+03  0.12756620595E+04  0.10100000352E+00 0. -1.
</event>
<event>
 5   0  0.6834837E-05  0.1693709E+04  0.7818609E-02  0.8764961E-01
        1   -1    0    0  501    0  0.00000000000E+00  0.00000000000E+00  0.22506263355E+04  0.22506263355E+04  0.50400001928E-02 0.  1.
       -1   -1    0    0    0  501  0.00000000000E+00  0.00000000000E+00 -0.31865006001E+03  0.31865006005E+03  0.50400001928E-02 0. -1.
    10030    2    1    2    0    0  0.00000000000E+00  0.00000000000E+00  0.19319762755E+04  0.25692763956E+04  0.16937086136E+04 0.  0.
        5    1    3    3  502    0 -0.71103470747E+03 -0.14757583374E+03  0.16268491081E+04  0.17815748911E+04  0.46999998093E+01 0.  1.
       -5    1    3    3    0  502  0.71103470747E+03  0.14757583374E+03  0.30512716740E+03  0.78770150451E+03  0.46999998093E+01 0. -1.
</event>
<event>
 5   0  0.6601906E-05  0.1705471E+04  0.7818609E-02  0.8758250E-01
        1   -1    0    0  501    0  0.00000000000E+00  0.00000000000E+00  0.77528666804E+03  0.77528666806E+03  0.50400001928E-02 0. -1.
       -1   -1    0    0    0  501  0.00000000000E+00  0.00000000000E+00 -0.93792175917E+03  0.93792175918E+03  0.50400001928E-02 0.  1.
    10030    2    1    2    0    0  0.00000000000E+00  0.00000000000E+00 -0.16263509113E+03  0.17132084272E+04  0.17054714721E+04 0.  0.
        1    1    3    3  502    0 -0.16536595864E+03  0.51247181071E+03 -0.74551676127E+03  0.91965672857E+03  0.50400001928E-02 0.  1.
       -1    1    3    3    0  502  0.16536595864E+03 -0.51247181071E+03  0.58288167014E+03  0.79355169867E+03  0.50400001928E-02 0. -1.
</event>
<event>
 5   0  0.6601906E-05  0.1685274E+04  0.7818609E-02  0.8769808E-01
       -1   -1    0    0    0  501  0.00000000000E+00  0.00000000000E+00  0.42983443171E+03  0.42983443174E+03  0.50400001928E-02 0. -1.
        1   -1    0    0  501    0  0.00000000000E+00  0.00000000000E+00 -0.16518849233E+04  0.16518849233E+04  0.50400001928E-02 0.  1.
    10030    2    1    2    0    0  0.00000000000E+00  0.00000000000E+00 -0.12220504916E+04  0.20817193550E+04  0.16852738855E+04 0.  0.
        1    1    3    3  502    0 -0.77709847861E+03 -0.88571833900E+02 -0.22372253065E+03  0.81349787091E+03  0.50400001928E-02 0. -1.
       -1    1    3    3    0  502  0.77709847861E+03  0.88571833900E+02 -0.99832796093E+03  0.12682214841E+04  0.50400001928E-02 0.  1.
</event>
<event>
 5   0  0.1393870E-04  0.1709371E+04  0.7818609E-02  0.8756038E-01
       -2   -1    0    0    0  501  0.00000000000E+00  0.00000000000E+00  0.49600233586E+03  0.49600233587E+03  0.25500000920E-02 0.  1.
        2   -1    0    0  501    0  0.00000000000E+00  0.00000000000E+00 -0.14727498601E+04  0.14727498601E+04  0.25500000920E-02 0. -1.
    10030    2    1    2    0    0  0.00000000000E+00  0.00000000000E+00 -0.97674752423E+03  0.19687521960E+04  0.17093710782E+04 0.  0.
        3    1    3    3  502    0  0.66589581373E+03 -0.30967905091E+03 -0.99194793824E+03  0.12342119233E+04  0.10100000352E+00 0. -1.
       -3    1    3    3    0  502 -0.66589581373E+03  0.30967905091E+03  0.15200414015E+02  0.73454027263E+03  0.10100000352E+00 0.  1.
</event>
<event>
 5   0  0.6601906E-05  0.1707617E+04  0.7818609E-02  0.8757032E-01
       -1   -1    0    0    0  501  0.00000000000E+00  0.00000000000E+00  0.81050141803E+03  0.81050141804E+03  0.50400001928E-02 0. -1.
        1   -1    0    0  501    0  0.00000000000E+00  0.00000000000E+00 -0.89942968391E+03  0.89942968392E+03  0.50400001928E-02 0.  1.
    10030    2    1    2    0    0  0.00000000000E+00  0.00000000000E+00 -0.88928265884E+02  0.17099311020E+04  0.17076170932E+04 0.  0.
        1    1    3    3  502    0 -0.48650271038E+03  0.47896667359E+03  0.46896362125E+03  0.82826375008E+03  0.50400001928E-02 0. -1.
       -1    1    3    3    0  502  0.48650271038E+03 -0.47896667359E+03 -0.55789188714E+03  0.88166735188E+03  0.50400001928E-02 0.  1.
</event>
<event>
 5   0  0.6539134E-05  0.1718252E+04  0.7818609E-02  0.8751022E-01
        1   -1    0    0  501    0  0.00000000000E+00  0.00000000000E+00  0.14381226028E+04  0.14381226028E+04  0.50400001928E-02 0.  1.
       -1   -1    0    0    0  501  0.00000000000E+00  0.00000000000E+00 -0.51323693380E+03  0.51323693383E+03  0.50400001928E-02 0. -1.
    10030    2    1    2    0    0  0.00000000000E+00  0.00000000000E+00  0.92488566897E+03  0.19513595366E+04  0.17182521760E+04 0.  0.
        2    1    3    3  502    0  0.82587797982E+03  0.23528757739E+03  0.43320185467E+03  0.96182042426E+03  0.25500000920E-02 0. -1.
       -2    1    3    3    0  502 -0.82587797982E+03 -0.23528757739E+03  0.49168381430E+03  0.98953911235E+03  0.25500000920E-02 0.  1.
</event>
<event>
 5   0  0.6834837E-05  0.1700465E+04  0.7818609E-02  0.8761099E-01
        1   -1    0    0  501    0  0.00000000000E+00  0.00000000000E+00  0.10734100689E+04  0.10734100689E+04  0.50400001928E-02 0.  1.
       -1   -1    0    0    0  501  0.00000000000E+00  0.00000000000E+00 -0.67345642495E+03  0.67345642497E+03  0.50400001928E-02 0. -1.
    10030    2    1    2    0    0  0.00000000000E+00  0.00000000000E+00  0.39995364392E+03  0.17468664938E+04  0.17004645336E+04 0.  0.
        5    1    3    3  502    0 -0.40338554926E+03 -0.73543596096E+03  0.57310015542E+02  0.84076898248E+03  0.46999998093E+01 0. -1.
       -5    1    3    3    0  502  0.40338554926E+03  0.73543596096E+03  0.34264362838E+03  0.90609751136E+03  0.46999998093E+01 0.  1.
</event>
<event>
 5   0  0.1285639E-04  0.1703899E+04  0.7818609E-02  0.8759144E-01
       -2   -1    0    0    0  501  0.00000000000E+00  0.00000000000E+00  0.97319743299E+03  0.97319743299E+03  0.25500000920E-02 0.  1.
        2   -1    0    0  501    0  0.00000000000E+00  0.00000000000E+00 -0.74580755697E+03  0.74580755697E+03  0.25500000920E-02 0. -1.
    10030    2    1    2    0    0  0.00000000000E+00  0.00000000000E+00  0.22738987602E+03  0.17190049900E+04  0.17038990580E+04 0.  0.
        4    1    3    3  502    0 -0.74259651377E+02  0.79328656158E+03  0.41802858306E+03  0.89975973113E+03  0.12699999809E+01 0.  1.
       -4    1    3    3    0  502  0.74259651377E+02 -0.79328656158E+03 -0.19063870705E+03  0.81924525884E+03  0.12699999809E+01 0. -1.
</event>
<event>
 5   0  0.1393870E-04  0.1685989E+04  0.7818609E-02  0.8769396E-01
        2   -1    0    0  501    0  0.00000000000E+00  0.00000000000E+00  0.12480428299E+04  0.12480428299E+04  0.25500000920E-02 0.  1.
       -2   -1    0    0    0  501  0.00000000000E+00  0.00000000000E+00 -0.56940363719E+03  0.56940363720E+03  0.25500000920E-02 0. -1.
    10030    2    1    2    0    0  0.00000000000E+00  0.00000000000E+00  0.67863919269E+03  0.18174464671E+04  0.16859894741E+04 0.  0.
        3    1    3    3  502    0  0.79825091928E+03 -0.25995537661E+03  0.42183037409E+03  0.93953297051E+03  0.10100000352E+00 0. -1.
       -3    1    3    3    0  502 -0.79825091928E+03  0.25995537661E+03  0.25680881860E+03  0.87791349658E+03  0.10100000352E+00 0.  1.
</event>
<event>
 5   0  0.6564887E-05  0.1697728E+04  0.7818609E-02  0.8762661E-01
        1   -1    0    0  501    0  0.00000000000E+00  0.00000000000E+00  0.99282657107E+03  0.99282657108E+03  0.50400001928E-02 0.  1.
       -1   -1    0    0    0  501  0.00000000000E+00  0.00000000000E+00 -0.72577642552E+03  0.72577642554E+03  0.50400001928E-02 0. -1.
    10030    2    1    2    0    0  0.00000000000E+00  0.00000000000E+00  0.26705014555E+03  0.17186029966E+04  0.16977280347E+04 0.  0.
        4    1    3    3  502    0  0.73922865100E+03  0.40694012858E+03  0.22690485125E+03  0.87381158789E+03  0.12699999809E+01 0.  1.
       -4    1    3    3    0  502 -0.73922865100E+03 -0.40694012858E+03  0.40145294300E+02  0.84479140873E+03  0.12699999809E+01 0. -1.
</event>
<event>
 5   0  0.6539134E-05  0.1707019E+04  0.7818609E-02  0.8757371E-01
        1   -1    0    0  501    0  0.00000000000E+00  0.00000000000E+00  0.94381592522E+03  0.94381592523E+03  0.50400001928E-02 0. -1.
       -1   -1    0    0    0  501  0.00000000000E+00  0.00000000000E+00 -0.77184398464E+03  0.77184398466E+03  0.50400001928E-02 0.  1.
    10030    2    1    2    0    0  0.00000000000E+00  0.00000000000E+00  0.17197194058E+03  0.17156599099E+04  0.17070192085E+04 0.  0.
        2    1    3    3  502    0 -0.13585362756E+02  0.76597599358E+03  0.46415491791E+03  0.89573632987E+03  0.25500000920E-02 0. -1.
       -2    1    3    3    0  502  0.13585362756E+02 -0.76597599358E+03 -0.29218297733E+03  0.81992358002E+03  0.25500000920E-02 0.  1.
</event>
<event>
 5   0  0.6564887E-05  0.1686542E+04  0.7818609E-02  0.8769077E-01
        1   -1    0    0  501    0  0.00000000000E+00  0.00000000000E+00  0.14767129835E+04  0.14767129835E+04  0.50400001928E-02 0. -1.
       -1   -1    0    0    0  501  0.00000000000E+00  0.00000000000E+00 -0.48154665962E+03  0.48154665965E+03  0.50400001928E-02 0.  1.
    10030    2    1    2    0    0  0.00000000000E+00  0.00000000000E+00  0.99516632385E+03  0.19582596431E+04  0.16865422668E+04 0.  0.
        4    1    3    3  502    0 -0.16439327637E+03 -0.68125043764E+03 -0.46997181522E+02  0.70237999407E+03  0.12699999809E+01 0.  1.
       -4    1    3    3    0  502  0.16439327637E+03  0.68125043764E+03  0.10421635054E+04  0.12558796491E+04  0.12699999809E+01 0. -1.
</event>
<event>
 5   0  0.6601906E-05  0.1689049E+04  0.7818609E-02  0.8767635E-01
       -1   -1    0    0    0  501  0.00000000000E+00  0.00000000000E+00  0.12355848392E+04  0.12355848393E+04  0.50400001928E-02 0.  1.
        1   -1    0    0  501    0  0.00000000000E+00  0.00000000000E+00 -0.57723429003E+03  0.57723429005E+03  0.50400001928E-02 0. -1.
    10030    2    1    2    0    0  0.00000000000E+00  0.00000000000E+00  0.65835054922E+03  0.18128191293E+04  0.16890493628E+04 0.  0.
        1    1    3    3  502    0  0.29190520164E+03  0.11888361793E+03 -0.51174314802E+03  0.60101831164E+03  0.50400001928E-02 0. -1.
       -1    1    3    3    0  502 -0.29190520164E+03 -0.11888361793E+03  0.11700936972E+04  0.12118008177E+04  0.50400001928E-02 0.  1.
</event>
<event>
 5   0  0.4720875E-05  0.1697134E+04  0.7818609E-02  0.8763000E-01
        3   -1    0    0  501    0  0.00000000000E+00  0.00000000000E+00  0.16784202193E+04  0.16784202223E+04  0.10100000352E+00 0.  1.
       -3   -1    0    0    0  501  0.00000000000E+00  0.00000000000E+00 -0.42901431298E+03  0.42901432487E+03  0.10100000352E+00 0. -1.
    10030    2    1    2    0    0  0.00000000000E+00  0.00000000000E+00  0.12494059063E+04  0.21074345472E+04  0.16971344237E+04 0.  0.
        5    1    3    3  502    0  0.53158776678E+03  0.64719212912E+03  0.45534476458E+03  0.95331219987E+03  0.46999998093E+01 0. -1.
       -5    1    3    3    0  502 -0.53158776678E+03 -0.64719212912E+03  0.79406114173E+03  0.11541223473E+04  0.46999998093E+01 0.  1.
</event>
<event>
 5   0  0.6601906E-05  0.1699384E+04  0.7818609E-02  0.8761716E-01
       -1   -1    0    0    0  501  0.00000000000E+00  0.00000000000E+00  0.86265226474E+03  0.86265226475E+03  0.50400001928E-02 0.  1.
        1   -1    0    0  501    0  0.00000000000E+00  0.00000000000E+00 -0.83692608345E+03  0.83692608346E+03  0.50400001928E-02 0. -1.
    10030    2    1    2    0    0  0.00000000000E+00  0.00000000000E+00  0.25726181289E+02  0.16995783482E+04  0.16993836310E+04 0.  0.
        1    1    3    3  502    0  0.84788110366E+03 -0.74772878706E+01 -0.42078670856E+02  0.84895753153E+03  0.50400001928E-02 0. -1.
       -1    1    3    3    0  502 -0.84788110366E+03  0.74772878706E+01  0.67804852145E+02  0.85062081668E+03  0.50400001928E-02 0.  1.
</event>
<event>
 5   0  0.1285639E-04  0.1700348E+04  0.7818609E-02  0.8761166E-01
       -2   -1    0    0    0  501  0.00000000000E+00  0.00000000000E+00  0.88879103802E+03  0.88879103802E+03  0.25500000920E-02 0.  1.
        2   -1    0    0  501    0  0.00000000000E+00  0.00000000000E+00 -0.81323477252E+03  0.81323477252E+03  0.25500000920E-02 0. -1.
    10030    2    1    2    0    0  0.00000000000E+00  0.00000000000E+00  0.75556265496E+02  0.17020258105E+04  0.17003479381E+04 0.  0.
        4    1    3    3  502    0  0.39273821355E+03  0.69669547007E+03  0.32644835509E+03  0.86382754288E+03  0.12699999809E+01 0. -1.
       -4    1    3    3    0  502 -0.39273821355E+03 -0.69669547007E+03 -0.25089208959E+03  0.83819826766E+03  0.12699999809E+01 0.  1.
</event>
<event>
 5   0  0.1285639E-04  0.1702674E+04  0.7818609E-02  0.8759841E-01
        2   -1    0    0  501    0  0.00000000000E+00  0.00000000000E+00  0.16189037559E+04  0.16189037559E+04  0.25500000920E-02 0.  1.
       -2   -1    0    0    0  501  0.00000000000E+00  0.00000000000E+00 -0.44769484953E+03  0.44769484953E+03  0.25500000920E-02 0. -1.
    10030    2    1    2    0    0  0.00000000000E+00  0.00000000000E+00  0.11712089064E+04  0.20665986054E+04  0.17026742183E+04 0.  0.
        4    1    3    3  502    0  0.72900396758E+03 -0.41355681008E+03  0.40436608972E+03  0.93058560451E+03  0.12699999809E+01 0. -1.
       -4    1    3    3    0  502 -0.72900396758E+03  0.41355681008E+03  0.76684281666E+03  0.11360130009E+04  0.12699999809E+01 0.  1.
</event>
<event>
 5   0  0.6601906E-05  0.1697149E+04  0.7818609E-02  0.8762992E-01
        1   -1    0    0  501    0  0.00000000000E+00  0.00000000000E+00  0.11193075935E+04  0.11193075935E+04  0.50400001928E-02 0.  1.
       -1   -1    0    0    0  501  0.00000000000E+00  0.00000000000E+00 -0.64332492787E+03  0.64332492789E+03  0.50400001928E-02 0. -1.
    10030    2    1    2    0    0  0.00000000000E+00  0.00000000000E+00  0.47598266562E+03  0.17626325214E+04  0.16971487582E+04 0.  0.
        1    1    3    3  502    0 -0.14428148394E+03 -0.90278123972E+02 -0.62541619472E+03  0.64816101620E+03  0.50400001928E-02 0. -1.
       -1    1    3    3    0  502  0.14428148394E+03  0.90278123972E+02  0.11013988603E+04  0.11144715052E+04  0.50400001928E-02 0.  1.
</event>
<event>
 5   0  0.6564887E-05  0.1694332E+04  0.7818609E-02  0.8764604E-01
        1   -1    0    0  501    0  0.00000000000E+00  0.00000000000E+00  0.13498615413E+04  0.13498615413E+04  0.50400001928E-02 0.  1.
       -1   -1    0    0    0  501  0.00000000000E+00  0.00000000000E+00 -0.53167670976E+03  0.53167670979E+03  0.50400001928E-02 0. -1.
    10030    2    1    2    0    0  0.00000000000E+00  0.00000000000E+00  0.81818483151E+03  0.18815382511E+04  0.16943316593E+04 0.  0.
        4    1    3    3  502    0 -0.38204304991E+03  0.57050439461E+03 -0.14197938696E+03  0.70113616044E+03  0.12699999809E+01 0. -1.
       -4    1    3    3    0  502  0.38204304991E+03 -0.57050439461E+03  0.96016421847E+03  0.11804020906E+04  0.12699999809E+01 0.  1.
</event>
<event>
 5   0  0.1285639E-04  0.1696960E+04  0.7818609E-02  0.8763100E-01
        2   -1    0    0  501    0  0.00000000000E+00  0.00000000000E+00  0.11721239579E+04  0.11721239579E+04  0.25500000920E-02 0. -1.
       -2   -1    0    0    0  501  0.00000000000E+00  0.00000000000E+00 -0.61419956612E+03  0.61419956613E+03  0.25500000920E-02 0.  1.
    10030    2    1    2    0    0  0.00000000000E+00  0.00000000000E+00  0.55792439177E+03  0.17863235240E+04  0.16969596653E+04 0.  0.
        4    1    3    3  502    0  0.33592159828E+03 -0.72960895318E+03 -0.88282580959E+01  0.80327585286E+03  0.12699999809E+01 0.  1.
       -4    1    3    3    0  502 -0.33592159828E+03  0.72960895318E+03  0.56675264986E+03  0.98304767116E+03  0.12699999809E+01 0. -1.
</event>
<event>
 5   0  0.1285639E-04  0.1695219E+04  0.7818609E-02  0.8764096E-01
       -2   -1    0    0    0  501  0.00000000000E+00  0.00000000000E+00  0.68409501731E+03  0.68409501732E+03  0.25500000920E-02 0. -1.
        2   -1    0    0  501    0  0.00000000000E+00  0.00000000000E+00 -0.10502080387E+04  0.10502080387E+04  0.25500000920E-02 0.  1.
    10030    2    1    2    0    0  0.00000000000E+00  0.00000000000E+00 -0.36611302137E+03  0.17343030560E+04  0.16952192618E+04 0.  0.
        4    1    3    3  502    0  0.12089954776E+03 -0.20678595514E+03 -0.10148598285E+04  0.10427459980E+04  0.12699999809E+01 0.  1.
       -4    1    3    3    0  502 -0.12089954776E+03  0.20678595514E+03  0.64874680711E+03  0.69155705804E+03  0.12699999809E+01 0. -1.
</event>
<event>
 5   0  0.1333546E-04  0.1702280E+04  0.7818609E-02  0.8760065E-01
        2   -1    0    0  501    0  0.00000000000E+00  0.00000000000E+00  0.84150244203E+03  0.84150244203E+03  0.25500000920E-02 0.  1.
       -2   -1    0    0    0  501  0.00000000000E+00  0.00000000000E+00 -0.86088746711E+03  0.86088746711E+03  0.25500000920E-02 0. -1.
    10030    2    1    2    0    0  0.00000000000E+00  0.00000000000E+00 -0.19385025078E+02  0.17023899091E+04  0.17022795374E+04 0.  0.
        5    1    3    3  502    0 -0.57658258128E+03 -0.59586864368E+03  0.18243944417E+03  0.84900715800E+03  0.46999998093E+01 0.  1.
       -5    1    3    3    0  502  0.57658258128E+03  0.59586864368E+03 -0.20182446924E+03  0.85338275114E+03  0.46999998093E+01 0. -1.
</event>
<event>
 5   0  0.1255362E-04  0.1696968E+04  0.7818609E-02  0.8763095E-01
       -2   -1    0    0    0  501  0.00000000000E+00  0.00000000000E+00  0.68326309795E+03  0.68326309796E+03  0.25500000920E-02 0. -1.
        2   -1    0    0  501    0  0.00000000000E+00  0.00000000000E+00 -0.10536574851E+04  0.10536574851E+04  0.25500000920E-02 0.  1.
    10030    2    1    2    0    0  0.00000000000E+00  0.00000000000E+00 -0.37039438718E+03  0.17369205831E+04  0.16969682112E+04 0.  0.
        1    1    3    3  502    0  0.48533691047E+03  0.22084593999E+03  0.49034177358E+03  0.72440313419E+03  0.50400001928E-02 0. -1.
       -1    1    3    3    0  502 -0.48533691047E+03 -0.22084593999E+03 -0.86073616076E+03  0.10125174489E+04  0.50400001928E-02 0.  1.
</event>
<event>
 5   0  0.6834837E-05  0.1696183E+04  0.7818609E-02  0.8763544E-01
       -1   -1    0    0    0  501  0.00000000000E+00  0.00000000000E+00  0.32111202016E+03  0.32111202020E+03  0.50400001928E-02 0.  1.
        1   -1    0    0  501    0  0.00000000000E+00  0.00000000000E+00 -0.22399017309E+04  0.22399017309E+04  0.50400001928E-02 0. -1.
    10030    2    1    2    0    0  0.00000000000E+00  0.00000000000E+00 -0.19187897108E+04  0.25610137511E+04  0.16961832092E+04 0.  0.
        5    1    3    3  502    0  0.71305895102E+03  0.39497713163E+03 -0.60601696551E+03  0.10157453690E+04  0.46999998093E+01 0.  1.
       -5    1    3    3    0  502 -0.71305895102E+03 -0.39497713163E+03 -0.13127727453E+04  0.15452683821E+04  0.46999998093E+01 0. -1.
</event>
<event>
 5   0  0.1333546E-04  0.1697977E+04  0.7818609E-02  0.8762519E-01
        2   -1    0    0  501    0  0.00000000000E+00  0.00000000000E+00  0.15923090834E+04  0.15923090834E+04  0.25500000920E-02 0.  1.
       -2   -1    0    0    0  501  0.00000000000E+00  0.00000000000E+00 -0.45266436046E+03  0.45266436047E+03  0.25500000920E-02 0. -1.
    10030    2    1    2    0    0  0.00000000000E+00  0.00000000000E+00  0.11396447229E+04  0.20449734438E+04  0.16979771175E+04 0.  0.
        5    1    3    3  502    0  0.75459804559E+03  0.18635036778E+02  0.10378114160E+04  0.12832926791E+04  0.46999998093E+01 0.  1.
       -5    1    3    3    0  502 -0.75459804559E+03 -0.18635036778E+02  0.10183330691E+03  0.76168076475E+03  0.46999998093E+01 0. -1.
</event>
<event>
 5   0  0.6539134E-05  0.1703851E+04  0.7818609E-02  0.8759171E-01
       -1   -1    0    0    0  501  0.00000000000E+00  0.00000000000E+00  0.59141276552E+03  0.59141276554E+03  0.50400001928E-02 0.  1.
        1   -1    0    0  501    0  0.00000000000E+00  0.00000000000E+00 -0.12271915293E+04  0.12271915293E+04  0.50400001928E-02 0. -1.
    10030    2    1    2    0    0  0.00000000000E+00  0.00000000000E+00 -0.63577876380E+03  0.18186042949E+04  0.17038506228E+04 0.  0.
        2    1    3    3  502    0 -0.17855714145E+03  0.77359703849E+03 -0.64763253819E+03  0.10245793943E+04  0.25500000920E-02 0. -1.
       -2    1    3    3    0  502  0.17855714145E+03 -0.77359703849E+03  0.11853774392E+02  0.79402490055E+03  0.25500000920E-02 0.  1.
</event>
<event>
 5   0  0.1333546E-04  0.1698710E+04  0.7818609E-02  0.8762100E-01
        2   -1    0    0  501    0  0.00000000000E+00  0.00000000000E+00  0.14401585104E+04  0.14401585104E+04  0.25500000920E-02 0. -1.
       -2   -1    0    0    0  501  0.00000000000E+00  0.00000000000E+00 -0.50091981118E+03  0.50091981119E+03  0.25500000920E-02 0.  1.
    10030    2    1    2    0    0  0.00000000000E+00  0.00000000000E+00  0.93923869921E+03  0.19410783216E+04  0.16987100154E+04 0.  0.
        5    1    3    3  502    0 -0.54363059339E+03  0.58364383640E+03  0.80317069463E+03  0.11319362193E+04  0.46999998093E+01 0. -1.
       -5    1    3    3    0  502  0.54363059339E+03 -0.58364383640E+03  0.13606800458E+03  0.80914210229E+03  0.46999998093E+01 0.  1.
</event>
<event>
 5   0  0.6615842E-05  0.1713343E+04  0.7818609E-02  0.8753791E-01
        1   -1    0    0  501    0  0.00000000000E+00  0.00000000000E+00  0.14139993706E+04  0.14139993706E+04  0.50400001928E-02 0. -1.
       -1   -1    0    0    0  501  0.00000000000E+00  0.00000000000E+00 -0.51901449831E+03  0.51901449833E+03  0.50400001928E-02 0.  1.
    10030    2    1    2    0    0  0.00000000000E+00  0.00000000000E+00  0.89498487229E+03  0.19330138689E+04  0.17133431343E+04 0.  0.
        3    1    3    3  502    0  0.60448295291E+03  0.45919782184E+03  0.89541365216E+03  0.11738943303E+04  0.10100000352E+00 0. -1.
       -3    1    3    3    0  502 -0.60448295291E+03 -0.45919782184E+03 -0.42877986626E+00  0.75911953868E+03  0.10100000352E+00 0.  1.
</event>
<event>
 5   0  0.6564887E-05  0.1701222E+04  0.7818609E-02  0.8760668E-01
       -1   -1    0    0    0  501  0.00000000000E+00  0.00000000000E+00  0.77644077573E+03  0.77644077575E+03  0.50400001928E-02 0.  1.
        1   -1    0    0  501    0  0.00000000000E+00  0.00000000000E+00 -0.93186603715E+03  0.93186603716E+03  0.50400001928E-02 0. -1.
    10030    2    1    2    0    0  0.00000000000E+00  0.00000000000E+00 -0.15542526142E+03  0.17083068129E+04  0.17012216655E+04 0.  0.
        4    1    3    3  502    0 -0.77680997657E+03 -0.26719998043E+03 -0.29932977942E+03  0.87431658968E+03  0.12699999809E+01 0. -1.
       -4    1    3    3    0  502  0.77680997657E+03  0.26719998043E+03  0.14390451800E+03  0.83399022323E+03  0.12699999809E+01 0.  1.
</event>
<event>
 5   0  0.6615842E-05  0.1717792E+04  0.7818609E-02  0.8751281E-01
        1   -1    0    0  501    0  0.00000000000E+00  0.00000000000E+00  0.17678212313E+04  0.17678212313E+04  0.50400001928E-02 0.  1.
       -1   -1    0    0    0  501  0.00000000000E+00  0.00000000000E+00 -0.41729477746E+03  0.41729477749E+03  0.50400001928E-02 0. -1.
    10030    2    1    2    0    0  0.00000000000E+00  0.00000000000E+00  0.13505264538E+04  0.21851160088E+04  0.17177922661E+04 0.  0.
        3    1    3    3  502    0 -0.45216563491E+03 -0.27657760841E+03  0.15349591274E+04  0.16238991557E+04  0.10100000352E+00 0.  1.
       -3    1    3    3    0  502  0.45216563491E+03  0.27657760841E+03 -0.18443267361E+03  0.56121685306E+03  0.10100000352E+00 0. -1.
</event>
<event>
 5   0  0.6615842E-05  0.1705148E+04  0.7818609E-02  0.8758434E-01
       -1   -1    0    0    0  501  0.00000000000E+00  0.00000000000E+00  0.13974913988E+04  0.13974913988E+04  0.50400001928E-02 0. -1.
        1   -1    0    0  501    0  0.00000000000E+00  0.00000000000E+00 -0.52013356938E+03  0.52013356941E+03  0.50400001928E-02 0.  1.
    10030    2    1    2    0    0  0.00000000000E+00  0.00000000000E+00  0.87735782940E+03  0.19176249682E+04  0.17051477232E+04 0.  0.
        3    1    3    3  502    0  0.36747666907E+03 -0.67265490879E+03  0.18823766792E+02  0.76671903135E+03  0.10100000352E+00 0.  1.
       -3    1    3    3    0  502 -0.36747666907E+03  0.67265490879E+03  0.85853406260E+03  0.11509059369E+04  0.10100000352E+00 0. -1.
</event>
<event>
 5   0  0.1269175E-04  0.1699524E+04  0.7818609E-02  0.8761636E-01
       -2   -1    0    0    0  501  0.00000000000E+00  0.00000000000E+00  0.14372168865E+04  0.14372168865E+04  0.25500000920E-02 0. -1.
        2   -1    0    0  501    0  0.00000000000E+00  0.00000000000E+00 -0.50242646315E+03  0.50242646316E+03  0.25500000920E-02 0.  1.
    10030    2    1    2    0    0  0.00000000000E+00  0.00000000000E+00  0.93479042331E+03  0.19396433496E+04  0.16995244006E+04 0.  0.
        2    1    3    3  502    0 -0.42817921460E+03  0.40485918994E+02 -0.36903523917E+03  0.56671294075E+03  0.25500000920E-02 0.  1.
       -2    1    3    3    0  502  0.42817921460E+03 -0.40485918994E+02  0.13038256625E+04  0.13729304089E+04  0.25500000920E-02 0. -1.
</event>
<event>
 5   0  0.6834837E-05  0.1719125E+04  0.7818609E-02  0.8750531E-01
       -1   -1    0    0    0  501  0.00000000000E+00  0.00000000000E+00  0.36047498206E+03  0.36047498210E+03  0.50400001928E-02 0. -1.
        1   -1    0    0  501    0  0.00000000000E+00  0.00000000000E+00 -0.20496512789E+04  0.20496512789E+04  0.50400001928E-02 0.  1.
    10030    2    1    2    0    0  0.00000000000E+00  0.00000000000E+00 -0.16891762969E+04  0.24101262610E+04  0.17191253684E+04 0.  0.
        5    1    3    3  502    0  0.46676975489E+03  0.69748892316E+03 -0.58433444699E+03  0.10226600794E+04  0.46999998093E+01 0.  1.
       -5    1    3    3    0  502 -0.46676975489E+03 -0.69748892316E+03 -0.11048418499E+04  0.13874661816E+04  0.46999998093E+01 0. -1.
</event>
<event>
 5   0  0.6539134E-05  0.1707298E+04  0.7818609E-02  0.8757213E-01
       -1   -1    0    0    0  501  0.00000000000E+00  0.00000000000E+00  0.54301243298E+03  0.54301243300E+03  0.50400001928E-02 0. -1.
        1   -1    0    0  501    0  0.00000000000E+00  0.00000000000E+00 -0.13419885631E+04  0.13419885631E+04  0.50400001928E-02 0.  1.
    10030    2    1    2    0    0  0.00000000000E+00  0.00000000000E+00 -0.79897613009E+03  0.18850009961E+04  0.17072978354E+04 0.  0.
        2    1    3    3  502    0  0.56665245317E+03  0.76714610965E+02 -0.10992863179E+04  0.12391168399E+04  0.25500000920E-02 0.  1.
       -2    1    3    3    0  502 -0.56665245317E+03 -0.76714610965E+02  0.30031018785E+03  0.64588415614E+03  0.25500000920E-02 0. -1.
</event>
<event>
 5   0  0.6615842E-05  0.1719975E+04  0.7818609E-02  0.8750053E-01
       -1   -1    0    0    0  501  0.00000000000E+00  0.00000000000E+00  0.67409572290E+03  0.67409572292E+03  0.50400001928E-02 0.  1.
        1   -1    0    0  501    0  0.00000000000E+00  0.00000000000E+00 -0.10971416445E+04  0.10971416446E+04  0.50400001928E-02 0. -1.
    10030    2    1    2    0    0  0.00000000000E+00  0.00000000000E+00 -0.42304592165E+03  0.17712373675E+04  0.17199749882E+04 0.  0.
        3    1    3    3  502    0 -0.13010899908E+03 -0.55654182285E+01 -0.10869286585E+04  0.10947023543E+04  0.10100000352E+00 0. -1.
       -3    1    3    3    0  502  0.13010899908E+03  0.55654182285E+01  0.66388273690E+03  0.67653501319E+03  0.10100000352E+00 0.  1.
</event>
<event>
 5   0  0.1255362E-04  0.1695157E+04  0.7818609E-02  0.8764131E-01
        2   -1    0    0  501    0  0.00000000000E+00  0.00000000000E+00  0.91740568907E+03  0.91740568908E+03  0.25500000920E-02 0. -1.
       -2   -1    0    0    0  501  0.00000000000E+00  0.00000000000E+00 -0.78306595274E+03  0.78306595274E+03  0.25500000920E-02 0.  1.
    10030    2    1    2    0    0  0.00000000000E+00  0.00000000000E+00  0.13433973633E+03  0.17004716418E+04  0.16951568187E+04 0.  0.
        1    1    3    3  502    0 -0.22710472987E+03  0.11295504084E+03  0.87844139961E+03  0.91432745346E+03  0.50400001928E-02 0. -1.
       -1    1    3    3    0  502  0.22710472987E+03 -0.11295504084E+03 -0.74410166327E+03  0.78614418836E+03  0.50400001928E-02 0.  1.
</event>
<event>
 5   0  0.1269175E-04  0.1709232E+04  0.7818609E-02  0.8756117E-01
        2   -1    0    0  501    0  0.00000000000E+00  0.00000000000E+00  0.15422973710E+04  0.15422973711E+04  0.25500000920E-02 0.  1.
       -2   -1    0    0    0  501  0.00000000000E+00  0.00000000000E+00 -0.47355871652E+03  0.47355871653E+03  0.25500000920E-02 0. -1.
    10030    2    1    2    0    0  0.00000000000E+00  0.00000000000E+00  0.10687386545E+04  0.20158560876E+04  0.17092318316E+04 0.  0.
        2    1    3    3  502    0  0.69503642224E+03  0.35929196314E+03  0.93985078807E+03  0.12229005875E+04  0.25500000920E-02 0.  1.
       -2    1    3    3    0  502 -0.69503642224E+03 -0.35929196314E+03  0.12888786645E+03  0.79295550010E+03  0.25500000920E-02 0. -1.
</event>
<event>
 5   0  0.6615842E-05  0.1700491E+04  0.7818609E-02  0.8761084E-01
        1   -1    0    0  501    0  0.00000000000E+00  0.00000000000E+00  0.64111470478E+03  0.64111470480E+03  0.50400001928E-02 0. -1.
       -1   -1    0    0    0  501  0.00000000000E+00  0.00000000000E+00 -0.11275944115E+04  0.11275944116E+04  0.50400001928E-02 0.  1.
    10030    2    1    2    0    0  0.00000000000E+00  0.00000000000E+00 -0.48647970676E+03  0.17687091164E+04  0.17004909389E+04 0.  0.
        3    1    3    3  502    0  0.13859171060E+03  0.15454618100E+03 -0.11008318318E+04  0.11202334205E+04  0.10100000352E+00 0.  1.
       -3    1    3    3    0  502 -0.13859171060E+03 -0.15454618100E+03  0.61435212506E+03  0.64847569583E+03  0.10100000352E+00 0. -1.
</event>
<event>
 5   0  0.1255362E-04  0.1701961E+04  0.7818609E-02  0.8760247E-01
        2   -1    0    0  501    0  0.00000000000E+00  0.00000000000E+00  0.85898532966E+03  0.85898532967E+03  0.25500000920E-02 0.  1.
       -2   -1    0    0    0  501  0.00000000000E+00  0.00000000000E+00 -0.84305033390E+03  0.84305033390E+03  0.25500000920E-02 0. -1.
    10030    2    1    2    0    0  0.00000000000E+00  0.00000000000E+00  0.15934995767E+02  0.17020356636E+04  0.17019610677E+04 0.  0.
        1    1    3    3  502    0 -0.82650860922E+03 -0.27962566950E+02  0.20864886911E+03  0.85289667420E+03  0.50400001928E-02 0.  1.
       -1    1    3    3    0  502  0.82650860922E+03  0.27962566950E+02 -0.19271387334E+03  0.84913898937E+03  0.50400001928E-02 0. -1.
</event>
<event>
 5   0  0.6601906E-05  0.1704640E+04  0.7818609E-02  0.8758722E-01
       -1   -1    0    0    0  501  0.00000000000E+00  0.00000000000E+00  0.14176282281E+04  0.14176282281E+04  0.50400001928E-02 0.  1.
        1   -1    0    0  501    0  0.00000000000E+00  0.00000000000E+00 -0.51243990744E+03  0.51243990746E+03  0.50400001928E-02 0. -1.
    10030    2    1    2    0    0  0.00000000000E+00  0.00000000000E+00  0.90518832067E+03  0.19300681356E+04  0.17046398775E+04 0.  0.
        1    1    3    3  502    0 -0.39289830478E+03 -0.35003086464E+03 -0.30656554578E+03  0.60899352869E+03  0.50400001928E-02 0. -1.
       -1    1    3    3    0  502  0.39289830478E+03  0.35003086464E+03  0.12117538664E+04  0.13210746069E+04  0.50400001928E-02 0.  1.
</event>
<event>
 5   0  0.6615842E-05  0.1699821E+04  0.7818609E-02  0.8761466E-01
       -1   -1    0    0    0  501  0.00000000000E+00  0.00000000000E+00  0.69530859914E+03  0.69530859916E+03  0.50400001928E-02 0. -1.
        1   -1    0    0  501    0  0.00000000000E+00  0.00000000000E+00 -0.10388884927E+04  0.10388884927E+04  0.50400001928E-02 0.  1.
    10030    2    1    2    0    0  0.00000000000E+00  0.00000000000E+00 -0.34357989358E+03  0.17341970919E+04  0.16998212877E+04 0.  0.
        3    1    3    3  502    0 -0.40840493560E+03  0.69203176675E+03 -0.45423802174E+03  0.92305728327E+03  0.10100000352E+00 0.  1.
       -3    1    3    3    0  502  0.40840493560E+03 -0.69203176675E+03  0.11065812816E+03  0.81113980862E+03  0.10100000352E+00 0. -1.
</event>
<event>
 5   0  0.1285639E-04  0.1703398E+04  0.7818609E-02  0.8759429E-01
        2   -1    0    0  501    0  0.00000000000E+00  0.00000000000E+00  0.91527420605E+03  0.91527420605E+03  0.25500000920E-02 0. -1.
       -2   -1    0    0    0  501  0.00000000000E+00  0.00000000000E+00 -0.79253956193E+03  0.79253956194E+03  0.25500000920E-02 0.  1.
    10030    2    1    2    0    0  0.00000000000E+00  0.00000000000E+00  0.12273464411E+03  0.17078137680E+04  0.17033978024E+04 0.  0.
        4    1    3    3  502    0  0.53855028905E+03  0.16427008093E+02 -0.59995100338E+03  0.80638023276E+03  0.12699999809E+01 0.  1.
       -4    1    3    3    0  502 -0.53855028905E+03 -0.16427008093E+02  0.72268564749E+03  0.90143353522E+03  0.12699999809E+01 0. -1.
</event>
<event>
 5   0  0.4720875E-05  0.1692703E+04  0.7818609E-02  0.8765537E-01
        4   -1    0    0  501    0  0.00000000000E+00  0.00000000000E+00  0.67046964899E+03  0.67047085180E+03  0.12699999809E+01 0. -1.
       -4   -1    0    0    0  501  0.00000000000E+00  0.00000000000E+00 -0.10683696865E+04  0.10683704414E+04  0.12699999809E+01 0.  1.
    10030    2    1    2    0    0  0.00000000000E+00  0.00000000000E+00 -0.39790003756E+03  0.17388412932E+04  0.16927033417E+04 0.  0.
        3    1    3    3  502    0 -0.82186724522E+03 -0.11922715024E+03 -0.36658582369E+03  0.90778084274E+03  0.10100000352E+00 0.  1.
       -3    1    3    3    0  502  0.82186724522E+03  0.11922715024E+03 -0.31314213878E+02  0.83106045045E+03  0.10100000352E+00 0. -1.
</event>
<event>
 5   0  0.1255362E-04  0.1696141E+04  0.7818609E-02  0.8763568E-01
       -2   -1    0    0    0  501  0.00000000000E+00  0.00000000000E+00  0.79855940339E+03  0.79855940339E+03  0.25500000920E-02 0. -1.
        2   -1    0    0  501    0  0.00000000000E+00  0.00000000000E+00 -0.90065139974E+03  0.90065139974E+03  0.25500000920E-02 0.  1.
    10030    2    1    2    0    0  0.00000000000E+00  0.00000000000E+00 -0.10209199635E+03  0.16992108031E+04  0.16961410843E+04 0.  0.
        1    1    3    3  502    0 -0.31219320264E+03 -0.55391543054E+03 -0.61325391072E+03  0.88338398163E+03  0.50400001928E-02 0.  1.
       -1    1    3    3    0  502  0.31219320264E+03  0.55391543054E+03  0.51116191436E+03  0.81582682150E+03  0.50400001928E-02 0. -1.
</event>
<event>
 5   0  0.1333546E-04  0.1629374E+04  0.7818609E-02  0.8802703E-01
       -2   -1    0    0    0  501  0.00000000000E+00  0.00000000000E+00  0.39706569823E+03  0.39706569824E+03  0.25500000920E-02 0. -1.
        2   -1    0    0  501    0  0.00000000000E+00  0.00000000000E+00 -0.16715502722E+04  0.16715502722E+04  0.25500000920E-02 0.  1.
    10030    2    1    2    0    0  0.00000000000E+00  0.00000000000E+00 -0.12744845739E+04  0.20686159704E+04  0.16293744517E+04 0.  0.
        5    1    3    3  502    0 -0.27611351343E+03 -0.33137584042E+03 -0.15146700896E+04  0.15748956125E+04  0.46999998093E+01 0.  1.
       -5    1    3    3    0  502  0.27611351343E+03  0.33137584042E+03  0.24018551564E+03  0.49372035794E+03  0.46999998093E+01 0. -1.
</event>
<event>
 5   0  0.1285639E-04  0.1698709E+04  0.7818609E-02  0.8762101E-01
        2   -1    0    0  501    0  0.00000000000E+00  0.00000000000E+00  0.50948265462E+03  0.50948265462E+03  0.25500000920E-02 0. -1.
       -2   -1    0    0    0  501  0.00000000000E+00  0.00000000000E+00 -0.14159525069E+04  0.14159525069E+04  0.25500000920E-02 0.  1.
    10030    2    1    2    0    0  0.00000000000E+00  0.00000000000E+00 -0.90646985226E+03  0.19254351615E+04  0.16987092065E+04 0.  0.
        4    1    3    3  502    0 -0.18864088909E+03 -0.61166630651E+03  0.17956253077E+03  0.66480476149E+03  0.12699999809E+01 0. -1.
       -4    1    3    3    0  502  0.18864088909E+03  0.61166630651E+03 -0.10860323830E+04  0.12606304000E+04  0.12699999809E+01 0.  1.
</event>
<event>
 5   0  0.6615842E-05  0.1683040E+04  0.7818609E-02  0.8771097E-01
       -1   -1    0    0    0  501  0.00000000000E+00  0.00000000000E+00  0.11378981309E+04  0.11378981309E+04  0.50400001928E-02 0. -1.
        1   -1    0    0  501    0  0.00000000000E+00  0.00000000000E+00 -0.62233717177E+03  0.62233717179E+03  0.50400001928E-02 0.  1.
    10030    2    1    2    0    0  0.00000000000E+00  0.00000000000E+00  0.51556095909E+03  0.17602353027E+04  0.16830404684E+04 0.  0.
        3    1    3    3  502    0 -0.79392326388E+03  0.22122842062E+03  0.79982805049E+02  0.82804192064E+03  0.10100000352E+00 0.  1.
       -3    1    3    3    0  502  0.79392326388E+03 -0.22122842062E+03  0.43557815405E+03  0.93219338203E+03  0.10100000352E+00 0. -1.
</event>
<event>
 5   0  0.6615842E-05  0.1698724E+04  0.7818609E-02  0.8762092E-01
        1   -1    0    0  501    0  0.00000000000E+00  0.00000000000E+00  0.55355769255E+03  0.55355769257E+03  0.50400001928E-02 0. -1.
       -1   -1    0    0    0  501  0.00000000000E+00  0.00000000000E+00 -0.13032354738E+04  0.13032354738E+04  0.50400001928E-02 0.  1.
    10030    2    1    2    0    0  0.00000000000E+00  0.00000000000E+00 -0.74967778128E+03  0.18567931664E+04  0.16987242528E+04 0.  0.
        3    1    3    3  502    0 -0.25936291236E+03 -0.67979467279E+02  0.50608584756E+03  0.57272438710E+03  0.10100000352E+00 0. -1.
       -3    1    3    3    0  502  0.25936291236E+03  0.67979467279E+02 -0.12557636288E+04  0.12840687793E+04  0.10100000352E+00 0.  1.
</event>
<event>
 5   0  0.1393870E-04  0.1699116E+04  0.7818609E-02  0.8761869E-01
       -2   -1    0    0    0  501  0.00000000000E+00  0.00000000000E+00  0.69159871279E+03  0.69159871280E+03  0.25500000920E-02 0.  1.
        2   -1    0    0  501    0  0.00000000000E+00  0.00000000000E+00 -0.10435946024E+04  0.10435946024E+04  0.25500000920E-02 0. -1.
    10030    2    1    2    0    0  0.00000000000E+00  0.00000000000E+00 -0.35199588964E+03  0.17351933152E+04  0.16991158686E+04 0.  0.
        3    1    3    3  502    0  0.12661664983E+03 -0.75598848176E+03 -0.55010715317E+03  0.94348728171E+03  0.10100000352E+00 0. -1.
       -3    1    3    3    0  502 -0.12661664983E+03  0.75598848176E+03  0.19811126353E+03  0.79170603352E+03  0.10100000352E+00 0.  1.
</event>
<event>
 5   0  0.1285639E-04  0.1701029E+04  0.7818609E-02  0.8760778E-01
        2   -1    0    0  501    0  0.00000000000E+00  0.00000000000E+00  0.14836967313E+04  0.14836967313E+04  0.25500000920E-02 0.  1.
       -2   -1    0    0    0  501  0.00000000000E+00  0.00000000000E+00 -0.48754897068E+03  0.48754897069E+03  0.25500000920E-02 0. -1.
    10030    2    1    2    0    0  0.00000000000E+00  0.00000000000E+00  0.99614776060E+03  0.19712457020E+04  0.17010288818E+04 0.  0.
        4    1    3    3  502    0  0.26074111823E+03 -0.79531038668E+03  0.32282735148E+03  0.89706390724E+03  0.12699999809E+01 0. -1.
       -4    1    3    3    0  502 -0.26074111823E+03  0.79531038668E+03  0.67332040912E+03  0.10741817947E+04  0.12699999809E+01 0.  1.
</event>
<event>
 5   0  0.6539134E-05  0.1702439E+04  0.7818609E-02  0.8759975E-01
       -1   -1    0    0    0  501  0.00000000000E+00  0.00000000000E+00  0.55148318749E+03  0.55148318751E+03  0.50400001928E-02 0.  1.
        1   -1    0    0  501    0  0.00000000000E+00  0.00000000000E+00 -0.13138653524E+04  0.13138653524E+04  0.50400001928E-02 0. -1.
    10030    2    1    2    0    0  0.00000000000E+00  0.00000000000E+00 -0.76238216493E+03  0.18653485399E+04  0.17024390180E+04 0.  0.
        2    1    3    3  502    0 -0.55098919936E+03  0.14193690095E+03  0.31251206878E+03  0.64915250504E+03  0.25500000920E-02 0.  1.
       -2    1    3    3    0  502  0.55098919936E+03 -0.14193690095E+03 -0.10748942337E+04  0.12161960349E+04  0.25500000920E-02 0. -1.
</event>
<event>
 5   0  0.6601906E-05  0.1700235E+04  0.7818609E-02  0.8761231E-01
       -1   -1    0    0    0  501  0.00000000000E+00  0.00000000000E+00  0.64244655462E+03  0.64244655464E+03  0.50400001928E-02 0. -1.
        1   -1    0    0  501    0  0.00000000000E+00  0.00000000000E+00 -0.11249175903E+04  0.11249175903E+04  0.50400001928E-02 0.  1.
    10030    2    1    2    0    0  0.00000000000E+00  0.00000000000E+00 -0.48247103563E+03  0.17673641449E+04  0.17002346075E+04 0.  0.
        1    1    3    3  502    0 -0.15659443175E+03 -0.53622536545E+03 -0.90734834804E+03  0.10655235724E+04  0.50400001928E-02 0.  1.
       -1    1    3    3    0  502  0.15659443175E+03  0.53622536545E+03  0.42487731241E+03  0.70184057252E+03  0.50400001928E-02 0. -1.
</event>
<event>
 5   0  0.6539134E-05  0.1697680E+04  0.7818609E-02  0.8762689E-01
        1   -1    0    0  501    0  0.00000000000E+00  0.00000000000E+00  0.16481281621E+04  0.16481281621E+04  0.50400001928E-02 0. -1.
       -1   -1    0    0    0  501  0.00000000000E+00  0.00000000000E+00 -0.43718043182E+03  0.43718043185E+03  0.50400001928E-02 0.  1.
    10030    2    1    2    0    0  0.00000000000E+00  0.00000000000E+00  0.12109477303E+04  0.20853085940E+04  0.16976800425E+04 0.  0.
        2    1    3    3  502    0 -0.43010034039E+03  0.72882577055E+03  0.52440349329E+03  0.99557638100E+03  0.25500000920E-02 0.  1.
       -2    1    3    3    0  502  0.43010034039E+03 -0.72882577055E+03  0.68654423701E+03  0.10897322130E+04  0.25500000920E-02 0. -1.
</event>
<event>
 5   0  0.1285639E-04  0.1699156E+04  0.7818609E-02  0.8761846E-01
       -2   -1    0    0    0  501  0.00000000000E+00  0.00000000000E+00  0.41400309626E+03  0.41400309626E+03  0.25500000920E-02 0. -1.
        2   -1    0    0  501    0  0.00000000000E+00  0.00000000000E+00 -0.17434242465E+04  0.17434242465E+04  0.25500000920E-02 0.  1.
    10030    2    1    2    0    0  0.00000000000E+00  0.00000000000E+00 -0.13294211502E+04  0.21574273428E+04  0.16991563038E+04 0.  0.
        4    1    3    3  502    0  0.35055671596E+03 -0.63376620869E+03 -0.12285965879E+04  0.14261840018E+04  0.12699999809E+01 0.  1.
       -4    1    3    3    0  502 -0.35055671596E+03  0.63376620869E+03 -0.10082456234E+03  0.73124334093E+03  0.12699999809E+01 0. -1.
</event>
<event>
 5   0  0.1285639E-04  0.1700538E+04  0.7818609E-02  0.8761058E-01
        2   -1    0    0  501    0  0.00000000000E+00  0.00000000000E+00  0.20437017438E+04  0.20437017438E+04  0.25500000920E-02 0. -1.
       -2   -1    0    0    0  501  0.00000000000E+00  0.00000000000E+00 -0.35374889609E+03  0.35374889609E+03  0.25500000920E-02 0.  1.
    10030    2    1    2    0    0  0.00000000000E+00  0.00000000000E+00  0.16899528478E+04  0.23974506399E+04  0.17005378394E+04 0.  0.
        4    1    3    3  502    0  0.80599283144E+03  0.63384178608E+02  0.47380658446E+03  0.93708926512E+03  0.12699999809E+01 0.  1.
       -4    1    3    3    0  502 -0.80599283144E+03 -0.63384178608E+02  0.12161462633E+04  0.14603613748E+04  0.12699999809E+01 0. -1.
</event>
<event>
 5   0  0.1333546E-04  0.1719523E+04  0.7818609E-02  0.8750307E-01
       -2   -1    0    0    0  501  0.00000000000E+00  0.00000000000E+00  0.66496750428E+03  0.66496750428E+03  0.25500000920E-02 0. -1.
        2   -1    0    0  501    0  0.00000000000E+00  0.00000000000E+00 -0.11116178316E+04  0.11116178316E+04  0.25500000920E-02 0.  1.
    10030    2    1    2    0    0  0.00000000000E+00  0.00000000000E+00 -0.44665032733E+03  0.17765853359E+04  0.17195228817E+04 0.  0.
        5    1    3    3  502    0 -0.48465881094E+03  0.33313106526E+02 -0.95620499972E+03  0.10725455783E+04  0.46999998093E+01 0.  1.
       -5    1    3    3    0  502  0.48465881094E+03 -0.33313106526E+02  0.50955467239E+03  0.70403975757E+03  0.46999998093E+01 0. -1.
</event>
<event>
 5   0  0.6615842E-05  0.1704927E+04  0.7818609E-02  0.8758559E-01
       -1   -1    0    0    0  501  0.00000000000E+00  0.00000000000E+00  0.10553797117E+04  0.10553797117E+04  0.50400001928E-02 0. -1.
        1   -1    0    0  501    0  0.00000000000E+00  0.00000000000E+00 -0.68856145387E+03  0.68856145389E+03  0.50400001928E-02 0.  1.
    10030    2    1    2    0    0  0.00000000000E+00  0.00000000000E+00  0.36681825780E+03  0.17439411656E+04  0.17049267300E+04 0.  0.
        3    1    3    3  502    0 -0.72152714919E+03  0.20977825024E+02  0.64727548690E+03  0.96953961358E+03  0.10100000352E+00 0. -1.
       -3    1    3    3    0  502  0.72152714919E+03 -0.20977825024E+02 -0.28045722911E+03  0.77440155198E+03  0.10100000352E+00 0.  1.
</event>
<event>
 5   0  0.6539134E-05  0.1694490E+04  0.7818609E-02  0.8764513E-01
        1   -1    0    0  501    0  0.00000000000E+00  0.00000000000E+00  0.90370764158E+03  0.90370764159E+03  0.50400001928E-02 0.  1.
       -1   -1    0    0    0  501  0.00000000000E+00  0.00000000000E+00 -0.79431038708E+03  0.79431038709E+03  0.50400001928E-02 0. -1.
    10030    2    1    2    0    0  0.00000000000E+00  0.00000000000E+00  0.10939725450E+03  0.16980180287E+04  0.16944903265E+04 0.  0.
        2    1    3    3  502    0 -0.50520709212E+02 -0.92945944167E+02  0.89706337591E+03  0.90327957522E+03  0.25500000920E-02 0.  1.
       -2    1    3    3    0  502  0.50520709212E+02  0.92945944167E+02 -0.78766612141E+03  0.79473845347E+03  0.25500000920E-02 0. -1.
</event>
<event>
 5   0  0.1255362E-04  0.1703758E+04  0.7818609E-02  0.8759224E-01
       -2   -1    0    0    0  501  0.00000000000E+00  0.00000000000E+00  0.78221326562E+03  0.78221326563E+03  0.25500000920E-02 0.  1.
        2   -1    0    0  501    0  0.00000000000E+00  0.00000000000E+00 -0.92774879592E+03  0.92774879592E+03  0.25500000920E-02 0. -1.
    10030    2    1    2    0    0  0.00000000000E+00  0.00000000000E+00 -0.14553553029E+03  0.17099620616E+04  0.17037575125E+04 0.  0.
        1    1    3    3  502    0  0.61719584197E+03  0.51848877031E+03 -0.34933634777E+03  0.87851988947E+03  0.50400001928E-02 0. -1.
       -1    1    3    3    0  502 -0.61719584197E+03 -0.51848877031E+03  0.20380081748E+03  0.83144217208E+03  0.50400001928E-02 0.  1.
</event>
<event>
 5   0  0.6564887E-05  0.1699601E+04  0.7818609E-02  0.8761592E-01
       -1   -1    0    0    0  501  0.00000000000E+00  0.00000000000E+00  0.86331569628E+03  0.86331569630E+03  0.50400001928E-02 0. -1.
        1   -1    0    0  501    0  0.00000000000E+00  0.00000000000E+00 -0.83649670660E+03  0.83649670661E+03  0.50400001928E-02 0.  1.
    10030    2    1    2    0    0  0.00000000000E+00  0.00000000000E+00  0.26818989685E+02  0.16998124029E+04  0.16996008199E+04 0.  0.
        4    1    3    3  502    0  0.47279014874E+02 -0.37277439360E+03  0.77571371696E+03  0.86193354579E+03  0.12699999809E+01 0. -1.
       -4    1    3    3    0  502 -0.47279014874E+02  0.37277439360E+03 -0.74889472728E+03  0.83787885712E+03  0.12699999809E+01 0.  1.
</event>
<event>
 5   0  0.1285639E-04  0.1703723E+04  0.7818609E-02  0.8759244E-01
       -2   -1    0    0    0  501  0.00000000000E+00  0.00000000000E+00  0.81708378760E+03  0.81708378761E+03  0.25500000920E-02 0.  1.
        2   -1    0    0  501    0  0.00000000000E+00  0.00000000000E+00 -0.88811926193E+03  0.88811926193E+03  0.25500000920E-02 0. -1.
    10030    2    1    2    0    0  0.00000000000E+00  0.00000000000E+00 -0.71035474323E+02  0.17052030495E+04  0.17037228065E+04 0.  0.
        4    1    3    3  502    0  0.44174934244E+03 -0.29583194802E+03  0.63064841591E+03  0.82485032606E+03  0.12699999809E+01 0.  1.
       -4    1    3    3    0  502 -0.44174934244E+03  0.29583194802E+03 -0.70168389023E+03  0.88035272347E+03  0.12699999809E+01 0. -1.
</event>
<event>
 5   0  0.1269175E-04  0.1703182E+04  0.7818609E-02  0.8759552E-01
        2   -1    0    0  501    0  0.00000000000E+00  0.00000000000E+00  0.60917514653E+03  0.60917514653E+03  0.25500000920E-02 0.  1.
       -2   -1    0    0    0  501  0.00000000000E+00  0.00000000000E+00 -0.11904743002E+04  0.11904743002E+04  0.25500000920E-02 0. -1.
    10030    2    1    2    0    0  0.00000000000E+00  0.00000000000E+00 -0.58129915371E+03  0.17996494468E+04  0.17031821468E+04 0.  0.
        2    1    3    3  502    0  0.52559261583E+03 -0.61291655192E+03 -0.57671030828E+03  0.99222430786E+03  0.25500000920E-02 0. -1.
       -2    1    3    3    0  502 -0.52559261583E+03  0.61291655192E+03 -0.45888454296E+01  0.80742513891E+03  0.25500000920E-02 0.  1.
</event>
<event>
 5   0  0.6564887E-05  0.1698220E+04  0.7818609E-02  0.8762380E-01
        1   -1    0    0  501    0  0.00000000000E+00  0.00000000000E+00  0.57879707495E+03  0.57879707497E+03  0.50400001928E-02 0. -1.
       -1   -1    0    0    0  501  0.00000000000E+00  0.00000000000E+00 -0.12456664527E+04  0.12456664527E+04  0.50400001928E-02 0.  1.
    10030    2    1    2    0    0  0.00000000000E+00  0.00000000000E+00 -0.66686937775E+03  0.18244635277E+04  0.16982203617E+04 0.  0.
        4    1    3    3  502    0  0.27873129041E+03 -0.10516690212E+01 -0.11951146162E+04  0.12271889818E+04  0.12699999809E+01 0.  1.
       -4    1    3    3    0  502 -0.27873129041E+03  0.10516690212E+01  0.52824523848E+03  0.59727454586E+03  0.12699999809E+01 0. -1.
</event>
<event>
 5   0  0.1285639E-04  0.1698886E+04  0.7818609E-02  0.8762000E-01
        2   -1    0    0  501    0  0.00000000000E+00  0.00000000000E+00  0.69924235061E+03  0.69924235061E+03  0.25500000920E-02 0.  1.
       -2   -1    0    0    0  501  0.00000000000E+00  0.00000000000E+00 -0.10319078316E+04  0.10319078316E+04  0.25500000920E-02 0. -1.
    10030    2    1    2    0    0  0.00000000000E+00  0.00000000000E+00 -0.33266548096E+03  0.17311501822E+04  0.16988862914E+04 0.  0.
        4    1    3    3  502    0 -0.26301565642E+03  0.37851017521E+02 -0.98846486309E+03  0.10235596385E+04  0.12699999809E+01 0. -1.
       -4    1    3    3    0  502  0.26301565642E+03 -0.37851017521E+02  0.65579938213E+03  0.70759054371E+03  0.12699999809E+01 0.  1.
</event>
<event>
 5   0  0.6615842E-05  0.1717991E+04  0.7818609E-02  0.8751169E-01
        1   -1    0    0  501    0  0.00000000000E+00  0.00000000000E+00  0.11401187679E+04  0.11401187679E+04  0.50400001928E-02 0.  1.
       -1   -1    0    0    0  501  0.00000000000E+00  0.00000000000E+00 -0.64719008159E+03  0.64719008161E+03  0.50400001928E-02 0. -1.
    10030    2    1    2    0    0  0.00000000000E+00  0.00000000000E+00  0.49292868628E+03  0.17873088495E+04  0.17179913369E+04 0.  0.
        3    1    3    3  502    0 -0.18529968846E+03 -0.27245973454E+03 -0.57882954570E+03  0.66604349307E+03  0.10100000352E+00 0. -1.
       -3    1    3    3    0  502  0.18529968846E+03  0.27245973454E+03  0.10717582320E+04  0.11212653564E+04  0.10100000352E+00 0.  1.
</event>
<event>
 5   0  0.1333546E-04  0.1698336E+04  0.7818609E-02  0.8762314E-01
        2   -1    0    0  501    0  0.00000000000E+00  0.00000000000E+00  0.94875463502E+03  0.94875463503E+03  0.25500000920E-02 0.  1.
       -2   -1    0    0    0  501  0.00000000000E+00  0.00000000000E+00 -0.76003462704E+03  0.76003462704E+03  0.25500000920E-02 0. -1.
    10030    2    1    2    0    0  0.00000000000E+00  0.00000000000E+00  0.18872000799E+03  0.17087892621E+04  0.16983360977E+04 0.  0.
        5    1    3    3  502    0  0.24742930994E+03 -0.61480200735E+03 -0.43981400821E+03  0.79540003990E+03  0.46999998093E+01 0. -1.
       -5    1    3    3    0  502 -0.24742930994E+03  0.61480200735E+03  0.62853401620E+03  0.91338922217E+03  0.46999998093E+01 0.  1.
</event>
<event>
 5   0  0.1333546E-04  0.1698981E+04  0.7818609E-02  0.8761946E-01
        2   -1    0    0  501    0  0.00000000000E+00  0.00000000000E+00  0.16969043053E+04  0.16969043053E+04  0.25500000920E-02 0. -1.
       -2   -1    0    0    0  501  0.00000000000E+00  0.00000000000E+00 -0.42526523640E+03  0.42526523641E+03  0.25500000920E-02 0.  1.
    10030    2    1    2    0    0  0.00000000000E+00  0.00000000000E+00  0.12716390689E+04  0.21221695417E+04  0.16989813543E+04 0.  0.
        5    1    3    3  502    0  0.15523572053E+03  0.64154228234E+02 -0.40429913161E+03  0.43782847297E+03  0.46999998093E+01 0.  1.
       -5    1    3    3    0  502 -0.15523572053E+03 -0.64154228234E+02  0.16759382005E+04  0.16843410687E+04  0.46999998093E+01 0. -1.
</event>
<event>
 5   0  0.1255362E-04  0.1670365E+04  0.7818609E-02  0.8778449E-01
        2   -1    0    0  501    0  0.00000000000E+00  0.00000000000E+00  0.19998039194E+04  0.19998039194E+04  0.25500000920E-02 0. -1.
       -2   -1    0    0    0  501  0.00000000000E+00  0.00000000000E+00 -0.34879908445E+03  0.34879908446E+03  0.25500000920E-02 0.  1.
    10030    2    1    2    0    0  0.00000000000E+00  0.00000000000E+00  0.16510048349E+04  0.23486030039E+04  0.16703649615E+04 0.  0.
        1    1    3    3  502    0 -0.23999521674E+03  0.42333541756E+03 -0.12886673745E+03  0.50340561764E+03  0.50400001928E-02 0.  1.
       -1    1    3    3    0  502  0.23999521674E+03 -0.42333541756E+03  0.17798715724E+04  0.18451973862E+04  0.50400001928E-02 0. -1.
</event>
<event>
 5   0  0.6564887E-05  0.1698875E+04  0.7818609E-02  0.8762006E-01
       -1   -1    0    0    0  501  0.00000000000E+00  0.00000000000E+00  0.12149310274E+04  0.12149310274E+04  0.50400001928E-02 0.  1.
        1   -1    0    0  501    0  0.00000000000E+00  0.00000000000E+00 -0.59389732270E+03  0.59389732272E+03  0.50400001928E-02 0. -1.
    10030    2    1    2    0    0  0.00000000000E+00  0.00000000000E+00  0.62103370466E+03  0.18088283501E+04  0.16988752567E+04 0.  0.
        4    1    3    3  502    0  0.21320044317E+03  0.80882577021E+03  0.46804202947E+03  0.95849804892E+03  0.12699999809E+01 0.  1.
       -4    1    3    3    0  502 -0.21320044317E+03 -0.80882577021E+03  0.15299167519E+03  0.85033030118E+03  0.12699999809E+01 0. -1.
</event>
<event>
 5   0  0.6615842E-05  0.1721677E+04  0.7818609E-02  0.8749097E-01
        1   -1    0    0  501    0  0.00000000000E+00  0.00000000000E+00  0.66604190623E+03  0.66604190625E+03  0.50400001928E-02 0.  1.
       -1   -1    0    0    0  501  0.00000000000E+00  0.00000000000E+00 -0.11126075913E+04  0.11126075913E+04  0.50400001928E-02 0. -1.
    10030    2    1    2    0    0  0.00000000000E+00  0.00000000000E+00 -0.44656568504E+03  0.17786494975E+04  0.17216774158E+04 0.  0.
        3    1    3    3  502    0 -0.34060579345E+03  0.19956075389E+03 -0.10135849696E+04  0.10877459730E+04  0.10100000352E+00 0. -1.
       -3    1    3    3    0  502  0.34060579345E+03 -0.19956075389E+03  0.56701928452E+03  0.69090352455E+03  0.10100000352E+00 0.  1.
</event>
<event>
 5   0  0.6615842E-05  0.1698630E+04  0.7818609E-02  0.8762146E-01
        1   -1    0    0  501    0  0.00000000000E+00  0.00000000000E+00  0.24620957733E+04  0.24620957733E+04  0.50400001928E-02 0.  1.
       -1   -1    0    0    0  501  0.00000000000E+00  0.00000000000E+00 -0.29297647632E+03  0.29297647636E+03  0.50400001928E-02 0. -1.
    10030    2    1    2    0    0  0.00000000000E+00  0.00000000000E+00  0.21691192970E+04  0.27550722496E+04  0.16986302059E+04 0.  0.
        3    1    3    3  502    0 -0.45023626972E+02  0.55367367635E+03  0.42530084456E+02  0.55712699195E+03  0.10100000352E+00 0. -1.
       -3    1    3    3    0  502  0.45023626972E+02 -0.55367367635E+03  0.21265892125E+04  0.21979452577E+04  0.10100000352E+00 0.  1.
</event>
<event>
 5   0  0.1285639E-04  0.1730465E+04  0.7818609E-02  0.8744177E-01
       -2   -1    0    0    0  501  0.00000000000E+00  0.00000000000E+00  0.58358551501E+03  0.58358551502E+03  0.25500000920E-02 0.  1.
        2   -1    0    0  501    0  0.00000000000E+00  0.00000000000E+00 -0.12828071676E+04  0.12828071676E+04  0.25500000920E-02 0. -1.
    10030    2    1    2    0    0  0.00000000000E+00  0.00000000000E+00 -0.69922165260E+03  0.18663926826E+04  0.17304654652E+04 0.  0.
        4    1    3    3  502    0  0.37270642559E+03  0.72335911202E+03 -0.32459341506E+02  0.81437933813E+03  0.12699999809E+01 0. -1.
       -4    1    3    3    0  502 -0.37270642559E+03 -0.72335911202E+03 -0.66676231109E+03  0.10520133445E+04  0.12699999809E+01 0.  1.
</event>
<event>
 5   0  0.6834837E-05  0.1687634E+04  0.7818609E-02  0.8768449E-01
        1   -1    0    0  501    0  0.00000000000E+00  0.00000000000E+00  0.85025794952E+03  0.85025794953E+03  0.50400001928E-02 0.  1.
       -1   -1    0    0    0  501  0.00000000000E+00  0.00000000000E+00 -0.83742518170E+03  0.83742518172E+03  0.50400001928E-02 0. -1.
    10030    2    1    2    0    0  0.00000000000E+00  0.00000000000E+00  0.12832767814E+02  0.16876831313E+04  0.16876343418E+04 0.  0.
        5    1    3    3  502    0 -0.78173047737E+03 -0.27501013762E+03  0.16539334487E+03  0.84505039114E+03  0.46999998093E+01 0.  1.
       -5    1    3    3    0  502  0.78173047737E+03  0.27501013762E+03 -0.15256057706E+03  0.84263274011E+03  0.46999998093E+01 0. -1.
</event>
<event>
 5   0  0.6564887E-05  0.1713932E+04  0.7818609E-02  0.8753458E-01
        1   -1    0    0  501    0  0.00000000000E+00  0.00000000000E+00  0.82748630439E+03  0.82748630440E+03  0.50400001928E-02 0. -1.
       -1   -1    0    0    0  501  0.00000000000E+00  0.00000000000E+00 -0.88749549293E+03  0.88749549294E+03  0.50400001928E-02 0.  1.
    10030    2    1    2    0    0  0.00000000000E+00  0.00000000000E+00 -0.60009188539E+02  0.17149817973E+04  0.17139315805E+04 0.  0.
        4    1    3    3  502    0  0.36690345613E+03  0.55407828157E+03 -0.57141641836E+03  0.87643552204E+03  0.12699999809E+01 0.  1.
       -4    1    3    3    0  502 -0.36690345613E+03 -0.55407828157E+03  0.51140722982E+03  0.83854627531E+03  0.12699999809E+01 0. -1.
</event>
<event>
 5   0  0.6539134E-05  0.1784472E+04  0.7818609E-02  0.8714601E-01
       -1   -1    0    0    0  501  0.00000000000E+00  0.00000000000E+00  0.12197546583E+04  0.12197546583E+04  0.50400001928E-02 0. -1.
        1   -1    0    0  501    0  0.00000000000E+00  0.00000000000E+00 -0.65265970143E+03  0.65265970145E+03  0.50400001928E-02 0.  1.
    10030    2    1    2    0    0  0.00000000000E+00  0.00000000000E+00  0.56709495685E+03  0.18724143597E+04  0.17844715869E+04 0.  0.
        2    1    3    3  502    0  0.50436192513E+03 -0.70787830695E+03  0.72091559169E+02  0.87216388476E+03  0.25500000920E-02 0.  1.
       -2    1    3    3    0  502 -0.50436192513E+03  0.70787830695E+03  0.49500339768E+03  0.10002504750E+04  0.25500000920E-02 0. -1.
</event>
<event>
 5   0  0.1393870E-04  0.1705911E+04  0.7818609E-02  0.8758000E-01
       -2   -1    0    0    0  501  0.00000000000E+00  0.00000000000E+00  0.12607414706E+04  0.12607414706E+04  0.25500000920E-02 0.  1.
        2   -1    0    0  501    0  0.00000000000E+00  0.00000000000E+00 -0.57706755884E+03  0.57706755885E+03  0.25500000920E-02 0. -1.
    10030    2    1    2    0    0  0.00000000000E+00  0.00000000000E+00  0.68367391173E+03  0.18378090294E+04  0.17059109036E+04 0.  0.
        3    1    3    3  502    0  0.22666336454E+03  0.81152188212E+03  0.48471449147E+03  0.97205565397E+03  0.10100000352E+00 0.  1.
       -3    1    3    3    0  502 -0.22666336454E+03 -0.81152188212E+03  0.19895942026E+03  0.86575337544E+03  0.10100000352E+00 0. -1.
</event>
<event>
 5   0  0.1285639E-04  0.1695346E+04  0.7818609E-02  0.8764023E-01
        2   -1    0    0  501    0  0.00000000000E+00  0.00000000000E+00  0.12115548699E+04  0.12115548699E+04  0.25500000920E-02 0.  1.
       -2   -1    0    0    0  501  0.00000000000E+00  0.00000000000E+00 -0.59308064376E+03  0.59308064377E+03  0.25500000920E-02 0. -1.
    10030    2    1    2    0    0  0.00000000000E+00  0.00000000000E+00  0.61847422613E+03  0.18046355137E+04  0.16953462681E+04 0.  0.
        4    1    3    3  502    0  0.18263134477E+02  0.76639827269E+03 -0.75811076348E+02  0.77035627255E+03  0.12699999809E+01 0. -1.
       -4    1    3    3    0  502 -0.18263134477E+02 -0.76639827269E+03  0.69428530248E+03  0.10342792411E+04  0.12699999809E+01 0.  1.
</event>
<event>
 5   0  0.1255362E-04  0.1689049E+04  0.7818609E-02  0.8767635E-01
       -2   -1    0    0    0  501  0.00000000000E+00  0.00000000000E+00  0.63156872702E+03  0.63156872702E+03  0.25500000920E-02 0.  1.
        2   -1    0    0  501    0  0.00000000000E+00  0.00000000000E+00 -0.11292860373E+04  0.11292860373E+04  0.25500000920E-02 0. -1.
    10030    2    1    2    0    0  0.00000000000E+00  0.00000000000E+00 -0.49771731032E+03  0.17608547644E+04  0.16890491349E+04 0.  0.
        1    1    3    3  502    0 -0.14488468675E+03  0.50784787857E+03 -0.93590576961E+03  0.10746258185E+04  0.50400001928E-02 0. -1.
       -1    1    3    3    0  502  0.14488468675E+03 -0.50784787857E+03  0.43818845929E+03  0.68622894584E+03  0.50400001928E-02 0.  1.
</event>
<event>
 5   0  0.1393870E-04  0.1701012E+04  0.7818609E-02  0.8760787E-01
       -2   -1    0    0    0  501  0.00000000000E+00  0.00000000000E+00  0.64840901383E+03  0.64840901383E+03  0.25500000920E-02 0. -1.
        2   -1    0    0  501    0  0.00000000000E+00  0.00000000000E+00 -0.11155929972E+04  0.11155929972E+04  0.25500000920E-02 0.  1.
    10030    2    1    2    0    0  0.00000000000E+00  0.00000000000E+00 -0.46718398340E+03  0.17640020111E+04  0.17010121166E+04 0.  0.
        3    1    3    3  502    0  0.40549182097E+03 -0.56767527607E+03 -0.73810691506E+03  0.10156183654E+04  0.10100000352E+00 0.  1.
       -3    1    3    3    0  502 -0.40549182097E+03  0.56767527607E+03  0.27092293166E+03  0.74838364563E+03  0.10100000352E+00 0. -1.
</event>
<event>
 5   0  0.6834837E-05  0.1690044E+04  0.7818609E-02  0.8767063E-01
        1   -1    0    0  501    0  0.00000000000E+00  0.00000000000E+00  0.11796024034E+04  0.11796024034E+04  0.50400001928E-02 0. -1.
       -1   -1    0    0    0  501  0.00000000000E+00  0.00000000000E+00 -0.60534148681E+03  0.60534148683E+03  0.50400001928E-02 0.  1.
    10030    2    1    2    0    0  0.00000000000E+00  0.00000000000E+00  0.57426091654E+03  0.17849438902E+04  0.16900441092E+04 0.  0.
        5    1    3    3  502    0  0.24344336006E+03 -0.39390712342E+03 -0.45939265739E+03  0.65229686118E+03  0.46999998093E+01 0.  1.
       -5    1    3    3    0  502 -0.24344336006E+03  0.39390712342E+03  0.10336535739E+04  0.11326470290E+04  0.46999998093E+01 0. -1.
</event>
<event>
 5   0  0.6564887E-05  0.1695276E+04  0.7818609E-02  0.8764063E-01
       -1   -1    0    0    0  501  0.00000000000E+00  0.00000000000E+00  0.66300255314E+03  0.66300255315E+03  0.50400001928E-02 0.  1.
        1   -1    0    0  501    0  0.00000000000E+00  0.00000000000E+00 -0.10836909705E+04  0.10836909705E+04  0.50400001928E-02 0. -1.
    10030    2    1    2    0    0  0.00000000000E+00  0.00000000000E+00 -0.42068841738E+03  0.17466935237E+04  0.16952756475E+04 0.  0.
        4    1    3    3  502    0 -0.13017226795E+03  0.40207300636E+03  0.54670708515E+03  0.69101213567E+03  0.12699999809E+01 0.  1.
       -4    1    3    3    0  502  0.13017226795E+03 -0.40207300636E+03 -0.96739550253E+03  0.10556813880E+04  0.12699999809E+01 0. -1.
</event>
<event>
 5   0  0.6834837E-05  0.1702114E+04  0.7818609E-02  0.8760160E-01
        1   -1    0    0  501    0  0.00000000000E+00  0.00000000000E+00  0.12374946996E+04  0.12374946997E+04  0.50400001928E-02 0.  1.
       -1   -1    0    0    0  501  0.00000000000E+00  0.00000000000E+00 -0.58529366417E+03  0.58529366419E+03  0.50400001928E-02 0. -1.
    10030    2    1    2    0    0  0.00000000000E+00  0.00000000000E+00  0.65220103548E+03  0.18227883638E+04  0.17021137532E+04 0.  0.
        5    1    3    3  502    0  0.51272536771E+02  0.41576596665E+03  0.11194215762E+04  0.11952476594E+04  0.46999998093E+01 0.  1.
       -5    1    3    3    0  502 -0.51272536771E+02 -0.41576596665E+03 -0.46722054072E+03  0.62754070444E+03  0.46999998093E+01 0. -1.
</event>
<event>
 5   0  0.6601906E-05  0.1700185E+04  0.7818609E-02  0.8761259E-01
       -1   -1    0    0    0  501  0.00000000000E+00  0.00000000000E+00  0.98703003910E+03  0.98703003911E+03  0.50400001928E-02 0. -1.
        1   -1    0    0  501    0  0.00000000000E+00  0.00000000000E+00 -0.73215327437E+03  0.73215327439E+03  0.50400001928E-02 0.  1.
    10030    2    1    2    0    0  0.00000000000E+00  0.00000000000E+00  0.25487676473E+03  0.17191833135E+04  0.17001850194E+04 0.  0.
        1    1    3    3  502    0  0.56815726735E+03  0.10523171402E+03 -0.50305197910E+03  0.76611858598E+03  0.50400001928E-02 0.  1.
       -1    1    3    3    0  502 -0.56815726735E+03 -0.10523171402E+03  0.75792874383E+03  0.95306472752E+03  0.50400001928E-02 0. -1.
</event>
<event>
 5   0  0.1285639E-04  0.1720887E+04  0.7818609E-02  0.8749540E-01
       -2   -1    0    0    0  501  0.00000000000E+00  0.00000000000E+00  0.53195008588E+03  0.53195008588E+03  0.25500000920E-02 0.  1.
        2   -1    0    0  501    0  0.00000000000E+00  0.00000000000E+00 -0.13917908116E+04  0.13917908116E+04  0.25500000920E-02 0. -1.
    10030    2    1    2    0    0  0.00000000000E+00  0.00000000000E+00 -0.85984072572E+03  0.19237408975E+04  0.17208872616E+04 0.  0.
        4    1    3    3  502    0  0.66627880013E+03  0.26609968263E+03 -0.96091228020E+03  0.11992041126E+04  0.12699999809E+01 0. -1.
       -4    1    3    3    0  502 -0.66627880013E+03 -0.26609968263E+03  0.10107155447E+03  0.72453678486E+03  0.12699999809E+01 0.  1.
</event>
<event>
 5   0  0.1255362E-04  0.1696645E+04  0.7818609E-02  0.8763280E-01
       -2   -1    0    0    0  501  0.00000000000E+00  0.00000000000E+00  0.44497894130E+03  0.44497894131E+03  0.25500000920E-02 0.  1.
        2   -1    0    0  501    0  0.00000000000E+00  0.00000000000E+00 -0.16172692369E+04  0.16172692369E+04  0.25500000920E-02 0. -1.
    10030    2    1    2    0    0  0.00000000000E+00  0.00000000000E+00 -0.11722902956E+04  0.20622481782E+04  0.16966446332E+04 0.  0.
        1    1    3    3  502    0 -0.64982972565E+03  0.36349117608E+03 -0.10802462711E+04  0.13119971470E+04  0.50400001928E-02 0.  1.
       -1    1    3    3    0  502  0.64982972565E+03 -0.36349117608E+03 -0.92044024524E+02  0.75025103125E+03  0.50400001928E-02 0. -1.
</event>
<event>
 5   0  0.1269175E-04  0.1698656E+04  0.7818609E-02  0.8762131E-01
        2   -1    0    0  501    0  0.00000000000E+00  0.00000000000E+00  0.85430215218E+03  0.85430215218E+03  0.25500000920E-02 0. -1.
       -2   -1    0    0    0  501  0.00000000000E+00  0.00000000000E+00 -0.84438299441E+03  0.84438299442E+03  0.25500000920E-02 0.  1.
    10030    2    1    2    0    0  0.00000000000E+00  0.00000000000E+00  0.99191577666E+01  0.16986851466E+04  0.16986561858E+04 0.  0.
        2    1    3    3  502    0 -0.69811357544E+03  0.32361216493E+03 -0.35458905462E+03  0.84724305555E+03  0.25500000920E-02 0.  1.
       -2    1    3    3    0  502  0.69811357544E+03 -0.32361216493E+03  0.36450821238E+03  0.85144209105E+03  0.25500000920E-02 0. -1.
</event>
<event>
 5   0  0.6615842E-05  0.1703390E+04  0.7818609E-02  0.8759433E-01
        1   -1    0    0  501    0  0.00000000000E+00  0.00000000000E+00  0.93961187451E+03  0.93961187453E+03  0.50400001928E-02 0.  1.
       -1   -1    0    0    0  501  0.00000000000E+00  0.00000000000E+00 -0.77200415418E+03  0.77200415420E+03  0.50400001928E-02 0. -1.
    10030    2    1    2    0    0  0.00000000000E+00  0.00000000000E+00  0.16760772033E+03  0.17116160287E+04  0.17033898796E+04 0.  0.
        3    1    3    3  502    0  0.66805823918E+03 -0.31727610752E+03  0.50823965810E+03  0.89737032467E+03  0.10100000352E+00 0.  1.
       -3    1    3    3    0  502 -0.66805823918E+03  0.31727610752E+03 -0.34063193777E+03  0.81424570405E+03  0.10100000352E+00 0. -1.
</event>
<event>
 5   0  0.1393870E-04  0.1712186E+04  0.7818609E-02  0.8754445E-01
        2   -1    0    0  501    0  0.00000000000E+00  0.00000000000E+00  0.22825742806E+04  0.22825742806E+04  0.25500000920E-02 0. -1.
       -2   -1    0    0    0  501  0.00000000000E+00  0.00000000000E+00 -0.32108270353E+03  0.32108270354E+03  0.25500000920E-02 0.  1.
    10030    2    1    2    0    0  0.00000000000E+00  0.00000000000E+00  0.19614915771E+04  0.26036569841E+04  0.17121858790E+04 0.  0.
        3    1    3    3  502    0  0.21972174315E+03  0.63219804474E+01  0.22389298153E+04  0.22496942770E+04  0.10100000352E+00 0. -1.
       -3    1    3    3    0  502 -0.21972174315E+03 -0.63219804474E+01 -0.27743823821E+03  0.35396270718E+03  0.10100000352E+00 0.  1.
</event>
<event>
 5   0  0.1333546E-04  0.1699266E+04  0.7818609E-02  0.8761783E-01
        2   -1    0    0  501    0  0.00000000000E+00  0.00000000000E+00  0.13730697601E+04  0.13730697601E+04  0.25500000920E-02 0. -1.
       -2   -1    0    0    0  501  0.00000000000E+00  0.00000000000E+00 -0.52573895139E+03  0.52573895140E+03  0.25500000920E-02 0.  1.
    10030    2    1    2    0    0  0.00000000000E+00  0.00000000000E+00  0.84733080870E+03  0.18988087115E+04  0.16992660249E+04 0.  0.
        5    1    3    3  502    0  0.79935972379E+03  0.49640383653E+02  0.10679202495E+03  0.80800170934E+03  0.46999998093E+01 0. -1.
       -5    1    3    3    0  502 -0.79935972379E+03 -0.49640383653E+02  0.74053878376E+03  0.10908070022E+04  0.46999998093E+01 0.  1.
</event>
<event>
 5   0  0.1255362E-04  0.1717951E+04  0.7818609E-02  0.8751192E-01
        2   -1    0    0  501    0  0.00000000000E+00  0.00000000000E+00  0.75107923600E+03  0.75107923600E+03  0.25500000920E-02 0. -1.
       -2   -1    0    0    0  501  0.00000000000E+00  0.00000000000E+00 -0.98237215840E+03  0.98237215840E+03  0.25500000920E-02 0.  1.
    10030    2    1    2    0    0  0.00000000000E+00  0.00000000000E+00 -0.23129292240E+03  0.17334513944E+04  0.17179514897E+04 0.  0.
        1    1    3    3  502    0  0.65883769615E+03 -0.23309314189E+03 -0.61959205651E+03  0.93396672274E+03  0.50400001928E-02 0.  1.
       -1    1    3    3    0  502 -0.65883769615E+03  0.23309314189E+03  0.38829913411E+03  0.79948467167E+03  0.50400001928E-02 0. -1.
</event>
<event>
 5   0  0.6615842E-05  0.1700830E+04  0.7818609E-02  0.8760891E-01
        1   -1    0    0  501    0  0.00000000000E+00  0.00000000000E+00  0.71345715150E+03  0.71345715152E+03  0.50400001928E-02 0. -1.
       -1   -1    0    0    0  501  0.00000000000E+00  0.00000000000E+00 -0.10136637934E+04  0.10136637934E+04  0.50400001928E-02 0.  1.
    10030    2    1    2    0    0  0.00000000000E+00  0.00000000000E+00 -0.30020664189E+03  0.17271209449E+04  0.17008300122E+04 0.  0.
        3    1    3    3  502    0 -0.28971023353E+03  0.79413454342E+03 -0.24440419323E+03  0.87995176705E+03  0.10100000352E+00 0.  1.
       -3    1    3    3    0  502  0.28971023353E+03 -0.79413454342E+03 -0.55802448662E+02  0.84716917787E+03  0.10100000352E+00 0. -1.
</event>
<event>
 5   0  0.6564887E-05  0.1697984E+04  0.7818609E-02  0.8762515E-01
        1   -1    0    0  501    0  0.00000000000E+00  0.00000000000E+00  0.12962920835E+04  0.12962920836E+04  0.50400001928E-02 0.  1.
       -1   -1    0    0    0  501  0.00000000000E+00  0.00000000000E+00 -0.55603754082E+03  0.55603754084E+03  0.50400001928E-02 0. -1.
    10030    2    1    2    0    0  0.00000000000E+00  0.00000000000E+00  0.74025454272E+03  0.18523296244E+04  0.16979835834E+04 0.  0.
        4    1    3    3  502    0 -0.72074376242E+03  0.69512751784E+02 -0.11342787648E+03  0.73291956570E+03  0.12699999809E+01 0. -1.
       -4    1    3    3    0  502  0.72074376242E+03 -0.69512751784E+02  0.85368241921E+03  0.11194100587E+04  0.12699999809E+01 0.  1.
</event>
<event>
 5   0  0.6615842E-05  0.1698931E+04  0.7818609E-02  0.8761974E-01
        1   -1    0    0  501    0  0.00000000000E+00  0.00000000000E+00  0.85279573037E+03  0.85279573039E+03  0.50400001928E-02 0. -1.
       -1   -1    0    0    0  501  0.00000000000E+00  0.00000000000E+00 -0.84614875488E+03  0.84614875490E+03  0.50400001928E-02 0.  1.
    10030    2    1    2    0    0  0.00000000000E+00  0.00000000000E+00  0.66469754853E+01  0.16989444853E+04  0.16989314824E+04 0.  0.
        3    1    3    3  502    0 -0.59990717380E+03 -0.24052100635E+03  0.55455639198E+03  0.85162889439E+03  0.10100000352E+00 0. -1.
       -3    1    3    3    0  502  0.59990717380E+03  0.24052100635E+03 -0.54790941650E+03  0.84731559089E+03  0.10100000352E+00 0.  1.
</event>
<event>
 5   0  0.1285639E-04  0.1778430E+04  0.7818609E-02  0.8717855E-01
        2   -1    0    0  501    0  0.00000000000E+00  0.00000000000E+00  0.18048655531E+04  0.18048655531E+04  0.25500000920E-02 0.  1.
       -2   -1    0    0    0  501  0.00000000000E+00  0.00000000000E+00 -0.43809530335E+03  0.43809530336E+03  0.25500000920E-02 0. -1.
    10030    2    1    2    0    0  0.00000000000E+00  0.00000000000E+00  0.13667702497E+04  0.22429608564E+04  0.17784297816E+04 0.  0.
        4    1    3    3  502    0  0.85077502285E+03 -0.18112617328E+03  0.45056870674E+03  0.97961145488E+03  0.12699999809E+01 0. -1.
       -4    1    3    3    0  502 -0.85077502285E+03  0.18112617328E+03  0.91620154299E+03  0.12633494016E+04  0.12699999809E+01 0.  1.
</event>
<event>
 5   0  0.1333546E-04  0.1699821E+04  0.7818609E-02  0.8761466E-01
       -2   -1    0    0    0  501  0.00000000000E+00  0.00000000000E+00  0.44043848900E+03  0.44043848901E+03  0.25500000920E-02 0.  1.
        2   -1    0    0  501    0  0.00000000000E+00  0.00000000000E+00 -0.16400659693E+04  0.16400659693E+04  0.25500000920E-02 0. -1.
    10030    2    1    2    0    0  0.00000000000E+00  0.00000000000E+00 -0.11996274803E+04  0.20805044583E+04  0.16998213758E+04 0.  0.
        5    1    3    3  502    0  0.72112178924E+02 -0.45914204965E+03 -0.14707282911E+04  0.15424251633E+04  0.46999998093E+01 0. -1.
       -5    1    3    3    0  502 -0.72112178924E+02  0.45914204965E+03  0.27110081081E+03  0.53807929502E+03  0.46999998093E+01 0.  1.
</event>
<event>
 5   0  0.1269175E-04  0.1700023E+04  0.7818609E-02  0.8761351E-01
        2   -1    0    0  501    0  0.00000000000E+00  0.00000000000E+00  0.66265460664E+03  0.66265460665E+03  0.25500000920E-02 0. -1.
       -2   -1    0    0    0  501  0.00000000000E+00  0.00000000000E+00 -0.10903407124E+04  0.10903407124E+04  0.25500000920E-02 0.  1.
    10030    2    1    2    0    0  0.00000000000E+00  0.00000000000E+00 -0.42768610577E+03  0.17529953191E+04  0.17000227009E+04 0.  0.
        2    1    3    3  502    0 -0.78106354917E+03  0.29625326469E+03 -0.51806409415E+02  0.83696485514E+03  0.25500000920E-02 0. -1.
       -2    1    3    3    0  502  0.78106354917E+03 -0.29625326469E+03 -0.37587969635E+03  0.91603046391E+03  0.25500000920E-02 0.  1.
</event>
<event>
 5   0  0.1393870E-04  0.1676662E+04  0.7818609E-02  0.8774788E-01
       -2   -1    0    0    0  501  0.00000000000E+00  0.00000000000E+00  0.12824232205E+04  0.12824232205E+04  0.25500000920E-02 0. -1.
        2   -1    0    0  501    0  0.00000000000E+00  0.00000000000E+00 -0.54802429119E+03  0.54802429119E+03  0.25500000920E-02 0.  1.
    10030    2    1    2    0    0  0.00000000000E+00  0.00000000000E+00  0.73439892933E+03  0.18304475117E+04  0.16766622515E+04 0.  0.
        3    1    3    3  502    0  0.57012651887E+03 -0.29710686253E+02  0.10374060387E+04  0.11841191966E+04  0.10100000352E+00 0. -1.
       -3    1    3    3    0  502 -0.57012651887E+03  0.29710686253E+02 -0.30300710937E+03  0.64632831512E+03  0.10100000352E+00 0.  1.
</event>
<event>
 5   0  0.1269175E-04  0.1696342E+04  0.7818609E-02  0.8763453E-01
       -2   -1    0    0    0  501  0.00000000000E+00  0.00000000000E+00  0.96488660743E+03  0.96488660743E+03  0.25500000920E-02 0.  1.
        2   -1    0    0  501    0  0.00000000000E+00  0.00000000000E+00 -0.74557387301E+03  0.74557387301E+03  0.25500000920E-02 0. -1.
    10030    2    1    2    0    0  0.00000000000E+00  0.00000000000E+00  0.21931273442E+03  0.17104604804E+04  0.16963422354E+04 0.  0.
        2    1    3    3  502    0  0.78175536746E+03  0.31439594936E+03  0.20745835949E+03  0.86777026825E+03  0.25500000920E-02 0.  1.
       -2    1    3    3    0  502 -0.78175536746E+03 -0.31439594936E+03  0.11854374927E+02  0.84269021220E+03  0.25500000920E-02 0. -1.
</event>
<event>
 5   0  0.1393870E-04  0.1701122E+04  0.7818609E-02  0.8760725E-01
       -2   -1    0    0    0  501  0.00000000000E+00  0.00000000000E+00  0.36326657205E+03  0.36326657206E+03  0.25500000920E-02 0.  1.
        2   -1    0    0  501    0  0.00000000000E+00  0.00000000000E+00 -0.19915228241E+04  0.19915228241E+04  0.25500000920E-02 0. -1.
    10030    2    1    2    0    0  0.00000000000E+00  0.00000000000E+00 -0.16282562520E+04  0.23547893962E+04  0.17011215941E+04 0.  0.
        3    1    3    3  502    0 -0.32039029236E+03  0.29179592628E+02 -0.19040511869E+04  0.19310391816E+04  0.10100000352E+00 0. -1.
       -3    1    3    3    0  502  0.32039029236E+03 -0.29179592628E+02  0.27579493488E+03  0.42375021460E+03  0.10100000352E+00 0.  1.
</event>
<event>
 5   0  0.1393870E-04  0.1719774E+04  0.7818609E-02  0.8750166E-01
       -2   -1    0    0    0  501  0.00000000000E+00  0.00000000000E+00  0.15990393038E+04  0.15990393038E+04  0.25500000920E-02 0.  1.
        2   -1    0    0  501    0  0.00000000000E+00  0.00000000000E+00 -0.46240593338E+03  0.46240593339E+03  0.25500000920E-02 0. -1.
    10030    2    1    2    0    0  0.00000000000E+00  0.00000000000E+00  0.11366333704E+04  0.20614452372E+04  0.17197735453E+04 0.  0.
        3    1    3    3  502    0 -0.24723172285E+02 -0.20172393071E+03 -0.43320374966E+03  0.47850734414E+03  0.10100000352E+00 0. -1.
       -3    1    3    3    0  502  0.24723172285E+02  0.20172393071E+03  0.15698371201E+04  0.15829378931E+04  0.10100000352E+00 0.  1.
</event>
<event>
 5   0  0.1285639E-04  0.1699180E+04  0.7818609E-02  0.8761832E-01
       -2   -1    0    0    0  501  0.00000000000E+00  0.00000000000E+00  0.50739499821E+03  0.50739499822E+03  0.25500000920E-02 0. -1.
        2   -1    0    0  501    0  0.00000000000E+00  0.00000000000E+00 -0.14225662994E+04  0.14225662994E+04  0.25500000920E-02 0.  1.
    10030    2    1    2    0    0  0.00000000000E+00  0.00000000000E+00 -0.91517130123E+03  0.19299612977E+04  0.16991798315E+04 0.  0.
        4    1    3    3  502    0  0.45139781914E+03 -0.39198380362E+03 -0.11432199750E+04  0.12901026383E+04  0.12699999809E+01 0.  1.
       -4    1    3    3    0  502 -0.45139781914E+03  0.39198380362E+03  0.22804867372E+03  0.63985865932E+03  0.12699999809E+01 0. -1.
</event>
<event>
 5   0  0.6834837E-05  0.1699772E+04  0.7818609E-02  0.8761494E-01
        1   -1    0    0  501    0  0.00000000000E+00  0.00000000000E+00  0.12405168794E+04  0.12405168794E+04  0.50400001928E-02 0. -1.
       -1   -1    0    0    0  501  0.00000000000E+00  0.00000000000E+00 -0.58226225628E+03  0.58226225630E+03  0.50400001928E-02 0.  1.
    10030    2    1    2    0    0  0.00000000000E+00  0.00000000000E+00  0.65825462315E+03  0.18227791357E+04  0.16997719343E+04 0.  0.
        5    1    3    3  502    0 -0.61482593287E+03 -0.35682392313E+03  0.82861300005E+03  0.10917672983E+04  0.46999998093E+01 0. -1.
       -5    1    3    3    0  502  0.61482593287E+03  0.35682392313E+03 -0.17035837691E+03  0.73101183740E+03  0.46999998093E+01 0.  1.
</event>
<event>
 5   0  0.6539134E-05  0.1699737E+04  0.7818609E-02  0.8761514E-01
       -1   -1    0    0    0  501  0.00000000000E+00  0.00000000000E+00  0.53289722175E+03  0.53289722177E+03  0.50400001928E-02 0. -1.
        1   -1    0    0  501    0  0.00000000000E+00  0.00000000000E+00 -0.13553768435E+04  0.13553768435E+04  0.50400001928E-02 0.  1.
    10030    2    1    2    0    0  0.00000000000E+00  0.00000000000E+00 -0.82247962178E+03  0.18882740653E+04  0.16997371025E+04 0.  0.
        2    1    3    3  502    0 -0.63919288368E+03  0.37885232805E+03  0.47047083878E+02  0.74452001794E+03  0.25500000920E-02 0. -1.
       -2    1    3    3    0  502  0.63919288368E+03 -0.37885232805E+03 -0.86952670565E+03  0.11437540474E+04  0.25500000920E-02 0.  1.
</event>
<event>
 5   0  0.6539134E-05  0.1698400E+04  0.7818609E-02  0.8762277E-01
        1   -1    0    0  501    0  0.00000000000E+00  0.00000000000E+00  0.48398476340E+03  0.48398476343E+03  0.50400001928E-02 0.  1.
       -1   -1    0    0    0  501  0.00000000000E+00  0.00000000000E+00 -0.14900073695E+04  0.14900073695E+04  0.50400001928E-02 0. -1.
    10030    2    1    2    0    0  0.00000000000E+00  0.00000000000E+00 -0.10060226061E+04  0.19739921329E+04  0.16984002640E+04 0.  0.
        2    1    3    3  502    0  0.31326266336E+03  0.64482489843E+03 -0.10320760900E+04  0.12566279089E+04  0.25500000920E-02 0. -1.
       -2    1    3    3    0  502 -0.31326266336E+03 -0.64482489843E+03  0.26053483892E+02  0.71736422403E+03  0.25500000920E-02 0.  1.
</event>
<event>
 5   0  0.6615842E-05  0.1709142E+04  0.7818609E-02  0.8756167E-01
        1   -1    0    0  501    0  0.00000000000E+00  0.00000000000E+00  0.13713154152E+04  0.13713154152E+04  0.50400001928E-02 0. -1.
       -1   -1    0    0    0  501  0.00000000000E+00  0.00000000000E+00 -0.53254833602E+03  0.53254833605E+03  0.50400001928E-02 0.  1.
    10030    2    1    2    0    0  0.00000000000E+00  0.00000000000E+00  0.83876707914E+03  0.19038637512E+04  0.17091421738E+04 0.  0.
        3    1    3    3  502    0  0.48728482323E+03 -0.68712880596E+03  0.25911995681E+03  0.88132607878E+03  0.10100000352E+00 0.  1.
       -3    1    3    3    0  502 -0.48728482323E+03  0.68712880596E+03  0.57964712233E+03  0.10225376724E+04  0.10100000352E+00 0. -1.
</event>
<event>
 5   0  0.1255362E-04  0.1697674E+04  0.7818609E-02  0.8762692E-01
       -2   -1    0    0    0  501  0.00000000000E+00  0.00000000000E+00  0.37039778823E+03  0.37039778824E+03  0.25500000920E-02 0. -1.
        2   -1    0    0  501    0  0.00000000000E+00  0.00000000000E+00 -0.19452708774E+04  0.19452708774E+04  0.25500000920E-02 0.  1.
    10030    2    1    2    0    0  0.00000000000E+00  0.00000000000E+00 -0.15748730892E+04  0.23156686656E+04  0.16976737384E+04 0.  0.
        1    1    3    3  502    0  0.26038329859E+03  0.48324886955E+02 -0.18874775481E+04  0.19059659629E+04  0.50400001928E-02 0.  1.
       -1    1    3    3    0  502 -0.26038329859E+03 -0.48324886955E+02  0.31260445896E+03  0.40970270279E+03  0.50400001928E-02 0. -1.
</event>
<event>
 5   0  0.6615842E-05  0.1705213E+04  0.7818609E-02  0.8758397E-01
       -1   -1    0    0    0  501  0.00000000000E+00  0.00000000000E+00  0.33670043484E+03  0.33670043488E+03  0.50400001928E-02 0. -1.
        1   -1    0    0  501    0  0.00000000000E+00  0.00000000000E+00 -0.21590037708E+04  0.21590037708E+04  0.50400001928E-02 0.  1.
    10030    2    1    2    0    0  0.00000000000E+00  0.00000000000E+00 -0.18223033360E+04  0.24957042057E+04  0.17052126067E+04 0.  0.
        3    1    3    3  502    0  0.38685626553E+03 -0.44889174581E+03 -0.13972761165E+02  0.59275358952E+03  0.10100000352E+00 0. -1.
       -3    1    3    3    0  502 -0.38685626553E+03  0.44889174581E+03 -0.18083305748E+04  0.19029506162E+04  0.10100000352E+00 0.  1.
</event>
<event>
 5   0  0.1393870E-04  0.1698112E+04  0.7818609E-02  0.8762442E-01
        2   -1    0    0  501    0  0.00000000000E+00  0.00000000000E+00  0.82933926023E+03  0.82933926023E+03  0.25500000920E-02 0.  1.
       -2   -1    0    0    0  501  0.00000000000E+00  0.00000000000E+00 -0.86924101995E+03  0.86924101995E+03  0.25500000920E-02 0. -1.
    10030    2    1    2    0    0  0.00000000000E+00  0.00000000000E+00 -0.39901759718E+02  0.16985802802E+04  0.16981115446E+04 0.  0.
        3    1    3    3  502    0 -0.47422731001E+03 -0.70419135625E+03 -0.90535405232E+01  0.84903414806E+03  0.10100000352E+00 0.  1.
       -3    1    3    3    0  502  0.47422731001E+03  0.70419135625E+03 -0.30848219194E+02  0.84954613212E+03  0.10100000352E+00 0. -1.
</event>
<event>
 5   0  0.6601906E-05  0.1701588E+04  0.7818609E-02  0.8760459E-01
       -1   -1    0    0    0  501  0.00000000000E+00  0.00000000000E+00  0.88386226276E+03  0.88386226277E+03  0.50400001928E-02 0. -1.
        1   -1    0    0  501    0  0.00000000000E+00  0.00000000000E+00 -0.81896314285E+03  0.81896314287E+03  0.50400001928E-02 0.  1.
    10030    2    1    2    0    0  0.00000000000E+00  0.00000000000E+00  0.64899119904E+02  0.17028254056E+04  0.17015882188E+04 0.  0.
        1    1    3    3  502    0  0.75390513798E+03 -0.12584975670E+03  0.40640494443E+03  0.86566511840E+03  0.50400001928E-02 0. -1.
       -1    1    3    3    0  502 -0.75390513798E+03  0.12584975670E+03 -0.34150582453E+03  0.83716028724E+03  0.50400001928E-02 0.  1.
</event>
<event>
 5   0  0.1285639E-04  0.1701340E+04  0.7818609E-02  0.8760600E-01
        2   -1    0    0  501    0  0.00000000000E+00  0.00000000000E+00  0.90206019451E+03  0.90206019451E+03  0.25500000920E-02 0. -1.
       -2   -1    0    0    0  501  0.00000000000E+00  0.00000000000E+00 -0.80220785229E+03  0.80220785229E+03  0.25500000920E-02 0.  1.
    10030    2    1    2    0    0  0.00000000000E+00  0.00000000000E+00  0.99852342220E+02  0.17042680468E+04  0.17013403790E+04 0.  0.
        4    1    3    3  502    0  0.95898038384E+02 -0.83160283138E+03 -0.10159036831E+03  0.84325673360E+03  0.12699999809E+01 0.  1.
       -4    1    3    3    0  502 -0.95898038384E+02  0.83160283138E+03  0.20144271053E+03  0.86101131320E+03  0.12699999809E+01 0. -1.
</event>
<event>
 5   0  0.1285639E-04  0.1702833E+04  0.7818609E-02  0.8759750E-01
       -2   -1    0    0    0  501  0.00000000000E+00  0.00000000000E+00  0.51941667530E+03  0.51941667530E+03  0.25500000920E-02 0.  1.
        2   -1    0    0  501    0  0.00000000000E+00  0.00000000000E+00 -0.13956234322E+04  0.13956234322E+04  0.25500000920E-02 0. -1.
    10030    2    1    2    0    0  0.00000000000E+00  0.00000000000E+00 -0.87620675691E+03  0.19150401075E+04  0.17028330313E+04 0.  0.
        4    1    3    3  502    0  0.46667691335E+02  0.84151293649E+03 -0.30227751774E+03  0.89537433866E+03  0.12699999809E+01 0.  1.
       -4    1    3    3    0  502 -0.46667691335E+02 -0.84151293649E+03 -0.57392923917E+03  0.10196657689E+04  0.12699999809E+01 0. -1.
</event>
<event>
 5   0  0.6834837E-05  0.1698153E+04  0.7818609E-02  0.8762419E-01
        1   -1    0    0  501    0  0.00000000000E+00  0.00000000000E+00  0.36969996997E+03  0.36969997001E+03  0.50400001928E-02 0. -1.
       -1   -1    0    0    0  501  0.00000000000E+00  0.00000000000E+00 -0.19500423066E+04  0.19500423066E+04  0.50400001928E-02 0.  1.
    10030    2    1    2    0    0  0.00000000000E+00  0.00000000000E+00 -0.15803423366E+04  0.23197422766E+04  0.16981526224E+04 0.  0.
        5    1    3    3  502    0  0.76366431940E+03 -0.13701056558E+03 -0.12613127714E+04  0.14808399931E+04  0.46999998093E+01 0.  1.
       -5    1    3    3    0  502 -0.76366431940E+03  0.13701056558E+03 -0.31902956521E+03  0.83890228352E+03  0.46999998093E+01 0. -1.
</event>
<event>
 5   0  0.6615842E-05  0.1705580E+04  0.7818609E-02  0.8758188E-01
        1   -1    0    0  501    0  0.00000000000E+00  0.00000000000E+00  0.13673716249E+04  0.13673716249E+04  0.50400001928E-02 0. -1.
       -1   -1    0    0    0  501  0.00000000000E+00  0.00000000000E+00 -0.53186066233E+03  0.53186066236E+03  0.50400001928E-02 0.  1.
    10030    2    1    2    0    0  0.00000000000E+00  0.00000000000E+00  0.83551096253E+03  0.18992322872E+04  0.17055804620E+04 0.  0.
        3    1    3    3  502    0 -0.49067563465E+03  0.50777374479E+03 -0.11471515943E+03  0.71537146458E+03  0.10100000352E+00 0.  1.
       -3    1    3    3    0  502  0.49067563465E+03 -0.50777374479E+03  0.95022612196E+03  0.11838608226E+04  0.10100000352E+00 0. -1.
</event>
<event>
 5   0  0.6539134E-05  0.1593326E+04  0.7818609E-02  0.8824658E-01
       -1   -1    0    0    0  501  0.00000000000E+00  0.00000000000E+00  0.37445544711E+03  0.37445544714E+03  0.50400001928E-02 0. -1.
        1   -1    0    0  501    0  0.00000000000E+00  0.00000000000E+00 -0.16949207214E+04  0.16949207215E+04  0.50400001928E-02 0.  1.
    10030    2    1    2    0    0  0.00000000000E+00  0.00000000000E+00 -0.13204652743E+04  0.20693761686E+04  0.15933264532E+04 0.  0.
        2    1    3    3  502    0  0.49198989827E+03  0.29447291784E+03  0.58102665104E+02  0.57631959800E+03  0.25500000920E-02 0. -1.
       -2    1    3    3    0  502 -0.49198989827E+03 -0.29447291784E+03 -0.13785679394E+04  0.14930565706E+04  0.25500000920E-02 0.  1.
</event>
<event>
 5   0  0.1285639E-04  0.1666523E+04  0.7818609E-02  0.8780691E-01
       -2   -1    0    0    0  501  0.00000000000E+00  0.00000000000E+00  0.86322284511E+03  0.86322284512E+03  0.25500000920E-02 0.  1.
        2   -1    0    0  501    0  0.00000000000E+00  0.00000000000E+00 -0.80434023722E+03  0.80434023722E+03  0.25500000920E-02 0. -1.
    10030    2    1    2    0    0  0.00000000000E+00  0.00000000000E+00  0.58882607894E+02  0.16675630823E+04  0.16665231688E+04 0.  0.
        4    1    3    3  502    0  0.38018426807E+03 -0.75145035157E+01  0.77133953464E+03  0.85997839278E+03  0.12699999809E+01 0.  1.
       -4    1    3    3    0  502 -0.38018426807E+03  0.75145035157E+01 -0.71245692674E+03  0.80758468956E+03  0.12699999809E+01 0. -1.
</event>
<event>
 5   0  0.6615842E-05  0.1699319E+04  0.7818609E-02  0.8761753E-01
        1   -1    0    0  501    0  0.00000000000E+00  0.00000000000E+00  0.17046367366E+04  0.17046367366E+04  0.50400001928E-02 0. -1.
       -1   -1    0    0    0  501  0.00000000000E+00  0.00000000000E+00 -0.42350457079E+03  0.42350457082E+03  0.50400001928E-02 0.  1.
    10030    2    1    2    0    0  0.00000000000E+00  0.00000000000E+00  0.12811321658E+04  0.21281413075E+04  0.16993192161E+04 0.  0.
        3    1    3    3  502    0  0.34131646784E+03 -0.43627782365E+03 -0.16628729988E+03  0.57834829206E+03  0.10100000352E+00 0.  1.
       -3    1    3    3    0  502 -0.34131646784E+03  0.43627782365E+03  0.14474194657E+04  0.15497930154E+04  0.10100000352E+00 0. -1.
</event>
<event>
 5   0  0.1269175E-04  0.1703018E+04  0.7818609E-02  0.8759645E-01
        2   -1    0    0  501    0  0.00000000000E+00  0.00000000000E+00  0.75262099474E+03  0.75262099474E+03  0.25500000920E-02 0.  1.
       -2   -1    0    0    0  501  0.00000000000E+00  0.00000000000E+00 -0.96339012655E+03  0.96339012655E+03  0.25500000920E-02 0. -1.
    10030    2    1    2    0    0  0.00000000000E+00  0.00000000000E+00 -0.21076913181E+03  0.17160111213E+04  0.17030180685E+04 0.  0.
        2    1    3    3  502    0  0.67303022798E+03  0.16693299947E+03 -0.60335266513E+03  0.91916851154E+03  0.25500000920E-02 0. -1.
       -2    1    3    3    0  502 -0.67303022798E+03 -0.16693299947E+03  0.39258353332E+03  0.79684260975E+03  0.25500000920E-02 0.  1.
</event>
<event>
 5   0  0.1285639E-04  0.1708918E+04  0.7818609E-02  0.8756294E-01
        2   -1    0    0  501    0  0.00000000000E+00  0.00000000000E+00  0.97692367332E+03  0.97692367332E+03  0.25500000920E-02 0.  1.
       -2   -1    0    0    0  501  0.00000000000E+00  0.00000000000E+00 -0.74734645840E+03  0.74734645840E+03  0.25500000920E-02 0. -1.
    10030    2    1    2    0    0  0.00000000000E+00  0.00000000000E+00  0.22957721492E+03  0.17242701317E+04  0.17089183098E+04 0.  0.
        4    1    3    3  502    0 -0.61786276036E+03  0.17045173432E+03 -0.45534560515E+03  0.78622478809E+03  0.12699999809E+01 0. -1.
       -4    1    3    3    0  502  0.61786276036E+03 -0.17045173432E+03  0.68492282007E+03  0.93804534364E+03  0.12699999809E+01 0.  1.
</event>
<event>
 5   0  0.6834837E-05  0.1700605E+04  0.7818609E-02  0.8761019E-01
        1   -1    0    0  501    0  0.00000000000E+00  0.00000000000E+00  0.12146729949E+04  0.12146729949E+04  0.50400001928E-02 0. -1.
       -1   -1    0    0    0  501  0.00000000000E+00  0.00000000000E+00 -0.59523372782E+03  0.59523372784E+03  0.50400001928E-02 0.  1.
    10030    2    1    2    0    0  0.00000000000E+00  0.00000000000E+00  0.61943926704E+03  0.18099067227E+04  0.17006049922E+04 0.  0.
        5    1    3    3  502    0  0.48676856375E+03 -0.61615516294E+03 -0.37437797968E+02  0.78613898147E+03  0.46999998093E+01 0.  1.
       -5    1    3    3    0  502 -0.48676856375E+03  0.61615516294E+03  0.65687706501E+03  0.10237677412E+04  0.46999998093E+01 0. -1.
</event>
<event>
 5   0  0.6539134E-05  0.1688146E+04  0.7818609E-02  0.8768154E-01
       -1   -1    0    0    0  501  0.00000000000E+00  0.00000000000E+00  0.33657547340E+03  0.33657547344E+03  0.50400001928E-02 0.  1.
        1   -1    0    0  501    0  0.00000000000E+00  0.00000000000E+00 -0.21167880791E+04  0.21167880791E+04  0.50400001928E-02 0. -1.
    10030    2    1    2    0    0  0.00000000000E+00  0.00000000000E+00 -0.17802126057E+04  0.24533635525E+04  0.16881456689E+04 0.  0.
        2    1    3    3  502    0  0.84207318463E+03  0.37556986505E+02 -0.82574718360E+03  0.11799814349E+04  0.25500000920E-02 0. -1.
       -2    1    3    3    0  502 -0.84207318463E+03 -0.37556986505E+02 -0.95446542208E+03  0.12733821176E+04  0.25500000920E-02 0.  1.
</event>
<event>
 5   0  0.1269175E-04  0.1702631E+04  0.7818609E-02  0.8759865E-01
       -2   -1    0    0    0  501  0.00000000000E+00  0.00000000000E+00  0.96389445145E+03  0.96389445146E+03  0.25500000920E-02 0. -1.
        2   -1    0    0  501    0  0.00000000000E+00  0.00000000000E+00 -0.75188516248E+03  0.75188516248E+03  0.25500000920E-02 0.  1.
    10030    2    1    2    0    0  0.00000000000E+00  0.00000000000E+00  0.21200928898E+03  0.17157796139E+04  0.17026308305E+04 0.  0.
        2    1    3    3  502    0  0.64443259794E+03 -0.37868326181E+03 -0.30462662291E+03  0.80715039829E+03  0.25500000920E-02 0.  1.
       -2    1    3    3    0  502 -0.64443259794E+03  0.37868326181E+03  0.51663591189E+03  0.90862921565E+03  0.25500000920E-02 0. -1.
</event>
<event>
 5   0  0.1393870E-04  0.1695727E+04  0.7818609E-02  0.8763805E-01
        2   -1    0    0  501    0  0.00000000000E+00  0.00000000000E+00  0.70623770362E+03  0.70623770363E+03  0.25500000920E-02 0.  1.
       -2   -1    0    0    0  501  0.00000000000E+00  0.00000000000E+00 -0.10178897376E+04  0.10178897376E+04  0.25500000920E-02 0. -1.
    10030    2    1    2    0    0  0.00000000000E+00  0.00000000000E+00 -0.31165203397E+03  0.17241274412E+04  0.16957265237E+04 0.  0.
        3    1    3    3  502    0 -0.75078658070E+03  0.19830683047E+03  0.19026599868E+03  0.79950437724E+03  0.10100000352E+00 0.  1.
       -3    1    3    3    0  502  0.75078658070E+03 -0.19830683047E+03 -0.50191803265E+03  0.92462306399E+03  0.10100000352E+00 0. -1.
</event>
<event>
 5   0  0.1333546E-04  0.1718950E+04  0.7818609E-02  0.8750630E-01
        2   -1    0    0  501    0  0.00000000000E+00  0.00000000000E+00  0.16530307910E+04  0.16530307910E+04  0.25500000920E-02 0. -1.
       -2   -1    0    0    0  501  0.00000000000E+00  0.00000000000E+00 -0.44687446634E+03  0.44687446634E+03  0.25500000920E-02 0.  1.
    10030    2    1    2    0    0  0.00000000000E+00  0.00000000000E+00  0.12061563246E+04  0.20999052573E+04  0.17189499732E+04 0.  0.
        5    1    3    3  502    0  0.51546083101E+03  0.14051059255E+03 -0.21934773687E+03  0.57756264993E+03  0.46999998093E+01 0.  1.
       -5    1    3    3    0  502 -0.51546083101E+03 -0.14051059255E+03  0.14255040615E+04  0.15223426074E+04  0.46999998093E+01 0. -1.
</event>
<event>
 5   0  0.6539134E-05  0.1646684E+04  0.7818609E-02  0.8792371E-01
        1   -1    0    0  501    0  0.00000000000E+00  0.00000000000E+00  0.14198309660E+04  0.14198309660E+04  0.50400001928E-02 0. -1.
       -1   -1    0    0    0  501  0.00000000000E+00  0.00000000000E+00 -0.47744547217E+03  0.47744547220E+03  0.50400001928E-02 0.  1.
    10030    2    1    2    0    0  0.00000000000E+00  0.00000000000E+00  0.94238549379E+03  0.18972764382E+04  0.16466837778E+04 0.  0.
        2    1    3    3  502    0  0.71663777950E+03  0.38565830440E+03  0.61505309705E+03  0.10200942834E+04  0.25500000920E-02 0. -1.
       -2    1    3    3    0  502 -0.71663777950E+03 -0.38565830440E+03  0.32733239674E+03  0.87718215481E+03  0.25500000920E-02 0.  1.
</event>
<event>
 5   0  0.1269175E-04  0.1706585E+04  0.7818609E-02  0.8757618E-01
       -2   -1    0    0    0  501  0.00000000000E+00  0.00000000000E+00  0.92933832668E+03  0.92933832669E+03  0.25500000920E-02 0.  1.
        2   -1    0    0  501    0  0.00000000000E+00  0.00000000000E+00 -0.78346895360E+03  0.78346895361E+03  0.25500000920E-02 0. -1.
    10030    2    1    2    0    0  0.00000000000E+00  0.00000000000E+00  0.14586937308E+03  0.17128072803E+04  0.17065845732E+04 0.  0.
        2    1    3    3  502    0 -0.67259659788E+02  0.83007495370E+03 -0.11364484845E+03  0.84051379655E+03  0.25500000920E-02 0. -1.
       -2    1    3    3    0  502  0.67259659788E+02 -0.83007495370E+03  0.25951422153E+03  0.87229348374E+03  0.25500000920E-02 0.  1.
</event>
<event>
 5   0  0.6539134E-05  0.1727259E+04  0.7818609E-02  0.8745968E-01
        1   -1    0    0  501    0  0.00000000000E+00  0.00000000000E+00  0.10468728017E+04  0.10468728018E+04  0.50400001928E-02 0.  1.
       -1   -1    0    0    0  501  0.00000000000E+00  0.00000000000E+00 -0.71246104451E+03  0.71246104452E+03  0.50400001928E-02 0. -1.
    10030    2    1    2    0    0  0.00000000000E+00  0.00000000000E+00  0.33441175723E+03  0.17593338463E+04  0.17272592044E+04 0.  0.
        2    1    3    3  502    0  0.11974159561E+01  0.83858835599E+03 -0.43084300537E+02  0.83969525517E+03  0.25500000920E-02 0. -1.
       -2    1    3    3    0  502 -0.11974159561E+01 -0.83858835599E+03  0.37749605777E+03  0.91963859110E+03  0.25500000920E-02 0.  1.
</event>
<event>
 5   0  0.1333546E-04  0.1696007E+04  0.7818609E-02  0.8763645E-01
        2   -1    0    0  501    0  0.00000000000E+00  0.00000000000E+00  0.52270332838E+03  0.52270332838E+03  0.25500000920E-02 0. -1.
       -2   -1    0    0    0  501  0.00000000000E+00  0.00000000000E+00 -0.13757511622E+04  0.13757511622E+04  0.25500000920E-02 0.  1.
    10030    2    1    2    0    0  0.00000000000E+00  0.00000000000E+00 -0.85304783381E+03  0.18984544906E+04  0.16960067352E+04 0.  0.
        5    1    3    3  502    0  0.38758469163E+03  0.72864889856E+03 -0.64454641481E+03  0.10471930488E+04  0.46999998093E+01 0.  1.
       -5    1    3    3    0  502 -0.38758469163E+03 -0.72864889856E+03 -0.20850141900E+03  0.85126144179E+03  0.46999998093E+01 0. -1.
</event>
<event>
 5   0  0.6601906E-05  0.1706012E+04  0.7818609E-02  0.8757943E-01
       -1   -1    0    0    0  501  0.00000000000E+00  0.00000000000E+00  0.95232806604E+03  0.95232806605E+03  0.50400001928E-02 0. -1.
        1   -1    0    0  501    0  0.00000000000E+00  0.00000000000E+00 -0.76404269433E+03  0.76404269435E+03  0.50400001928E-02 0.  1.
    10030    2    1    2    0    0  0.00000000000E+00  0.00000000000E+00  0.18828537170E+03  0.17163707604E+04  0.17060120767E+04 0.  0.
        1    1    3    3  502    0  0.28120470484E+03 -0.28392788585E+03 -0.66404322891E+03  0.77501260653E+03  0.50400001928E-02 0.  1.
       -1    1    3    3    0  502 -0.28120470484E+03  0.28392788585E+03  0.85232860062E+03  0.94135815387E+03  0.50400001928E-02 0. -1.
</event>
<event>
 5   0  0.6539134E-05  0.1696921E+04  0.7818609E-02  0.8763122E-01
       -1   -1    0    0    0  501  0.00000000000E+00  0.00000000000E+00  0.85445019900E+03  0.85445019901E+03  0.50400001928E-02 0.  1.
        1   -1    0    0  501    0  0.00000000000E+00  0.00000000000E+00 -0.84251283033E+03  0.84251283034E+03  0.50400001928E-02 0. -1.
    10030    2    1    2    0    0  0.00000000000E+00  0.00000000000E+00  0.11937368669E+02  0.16969630294E+04  0.16969210418E+04 0.  0.
        2    1    3    3  502    0  0.81634768274E+03  0.80742014851E+02 -0.21069872563E+03  0.84695735728E+03  0.25500000920E-02 0.  1.
       -2    1    3    3    0  502 -0.81634768274E+03 -0.80742014851E+02  0.22263609430E+03  0.85000567207E+03  0.25500000920E-02 0. -1.
</event>
<event>
 5   0  0.6601906E-05  0.1700623E+04  0.7818609E-02  0.8761009E-01
       -1   -1    0    0    0  501  0.00000000000E+00  0.00000000000E+00  0.79335574948E+03  0.79335574950E+03  0.50400001928E-02 0. -1.
        1   -1    0    0  501    0  0.00000000000E+00  0.00000000000E+00 -0.91135575142E+03  0.91135575143E+03  0.50400001928E-02 0.  1.
    10030    2    1    2    0    0  0.00000000000E+00  0.00000000000E+00 -0.11800000194E+03  0.17047115009E+04  0.17006226216E+04 0.  0.
        1    1    3    3  502    0  0.31840387570E+03 -0.30207926383E+03 -0.78903424060E+03  0.90288866565E+03  0.50400001928E-02 0.  1.
       -1    1    3    3    0  502 -0.31840387570E+03  0.30207926383E+03  0.67103423866E+03  0.80182283528E+03  0.50400001928E-02 0. -1.
</event>
<event>
 5   0  0.1333546E-04  0.1693707E+04  0.7818609E-02  0.8764961E-01
        2   -1    0    0  501    0  0.00000000000E+00  0.00000000000E+00  0.23093729153E+04  0.23093729153E+04  0.25500000920E-02 0.  1.
       -2   -1    0    0    0  501  0.00000000000E+00  0.00000000000E+00 -0.31054365983E+03  0.31054365984E+03  0.25500000920E-02 0. -1.
    10030    2    1    2    0    0  0.00000000000E+00  0.00000000000E+00  0.19988292555E+04  0.26199165751E+04  0.16937073148E+04 0.  0.
        5    1    3    3  502    0  0.42403924991E+03  0.44421691801E+03  0.97450548537E+02  0.62181722002E+03  0.46999998093E+01 0. -1.
       -5    1    3    3    0  502 -0.42403924991E+03 -0.44421691801E+03  0.19013787069E+04  0.19980993551E+04  0.46999998093E+01 0.  1.
</event>
<event>
 5   0  0.6834837E-05  0.1705671E+04  0.7818609E-02  0.8758137E-01
       -1   -1    0    0    0  501  0.00000000000E+00  0.00000000000E+00  0.97804099455E+03  0.97804099456E+03  0.50400001928E-02 0. -1.
        1   -1    0    0  501    0  0.00000000000E+00  0.00000000000E+00 -0.74365802719E+03  0.74365802721E+03  0.50400001928E-02 0.  1.
    10030    2    1    2    0    0  0.00000000000E+00  0.00000000000E+00  0.23438296736E+03  0.17216990218E+04  0.17056705855E+04 0.  0.
        5    1    3    3  502    0 -0.80468960219E+03 -0.90923086752E+02 -0.15274174011E+03  0.82410223440E+03  0.46999998093E+01 0.  1.
       -5    1    3    3    0  502  0.80468960219E+03  0.90923086752E+02  0.38712470747E+03  0.89759678737E+03  0.46999998093E+01 0. -1.
</event>
<event>
 5   0  0.6615842E-05  0.1697668E+04  0.7818609E-02  0.8762695E-01
       -1   -1    0    0    0  501  0.00000000000E+00  0.00000000000E+00  0.49618362716E+03  0.49618362719E+03  0.50400001928E-02 0.  1.
        1   -1    0    0  501    0  0.00000000000E+00  0.00000000000E+00 -0.14521220943E+04  0.14521220943E+04  0.50400001928E-02 0. -1.
    10030    2    1    2    0    0  0.00000000000E+00  0.00000000000E+00 -0.95593846713E+03  0.19483057215E+04  0.16976680569E+04 0.  0.
        3    1    3    3  502    0 -0.28360178456E+02  0.14731952700E+03 -0.14367862393E+04  0.14445975392E+04  0.10100000352E+00 0. -1.
       -3    1    3    3    0  502  0.28360178456E+02 -0.14731952700E+03  0.48084777212E+03  0.50370818230E+03  0.10100000352E+00 0.  1.
</event>
<event>
 5   0  0.1255362E-04  0.1695373E+04  0.7818609E-02  0.8764008E-01
        2   -1    0    0  501    0  0.00000000000E+00  0.00000000000E+00  0.98751306997E+03  0.98751306997E+03  0.25500000920E-02 0.  1.
       -2   -1    0    0    0  501  0.00000000000E+00  0.00000000000E+00 -0.72765819877E+03  0.72765819877E+03  0.25500000920E-02 0. -1.
    10030    2    1    2    0    0  0.00000000000E+00  0.00000000000E+00  0.25985487120E+03  0.17151712687E+04  0.16953725039E+04 0.  0.
        1    1    3    3  502    0  0.66332562139E+03 -0.52775672773E+03  0.12322144568E+03  0.85656965178E+03  0.50400001928E-02 0.  1.
       -1    1    3    3    0  502 -0.66332562139E+03  0.52775672773E+03  0.13663342551E+03  0.85860161696E+03  0.50400001928E-02 0. -1.
</event>
<event>
 5   0  0.6615842E-05  0.1707270E+04  0.7818609E-02  0.8757229E-01
       -1   -1    0    0    0  501  0.00000000000E+00  0.00000000000E+00  0.54271647853E+03  0.54271647855E+03  0.50400001928E-02 0. -1.
        1   -1    0    0  501    0  0.00000000000E+00  0.00000000000E+00 -0.13426763278E+04  0.13426763278E+04  0.50400001928E-02 0.  1.
    10030    2    1    2    0    0  0.00000000000E+00  0.00000000000E+00 -0.79995984928E+03  0.18853928064E+04  0.17072698304E+04 0.  0.
        3    1    3    3  502    0  0.16755468532E+03  0.49046794190E+03  0.34906269989E+03  0.62488251157E+03  0.10100000352E+00 0. -1.
       -3    1    3    3    0  502 -0.16755468532E+03 -0.49046794190E+03 -0.11490225492E+04  0.12605102948E+04  0.10100000352E+00 0.  1.
</event>
<event>
 5   0  0.1393870E-04  0.1697878E+04  0.7818609E-02  0.8762576E-01
       -2   -1    0    0    0  501  0.00000000000E+00  0.00000000000E+00  0.10458039997E+04  0.10458039997E+04  0.25500000920E-02 0. -1.
        2   -1    0    0  501    0  0.00000000000E+00  0.00000000000E+00 -0.68913205517E+03  0.68913205518E+03  0.25500000920E-02 0.  1.
    10030    2    1    2    0    0  0.00000000000E+00  0.00000000000E+00  0.35667194451E+03  0.17349360549E+04  0.16978775687E+04 0.  0.
        3    1    3    3  502    0  0.41343967168E+02 -0.17127693775E+03  0.10269145849E+04  0.10419206725E+04  0.10100000352E+00 0. -1.
       -3    1    3    3    0  502 -0.41343967168E+02  0.17127693775E+03 -0.67024264034E+03  0.69301538234E+03  0.10100000352E+00 0.  1.
</event>
<event>
 5   0  0.6601906E-05  0.1701489E+04  0.7818609E-02  0.8760515E-01
       -1   -1    0    0    0  501  0.00000000000E+00  0.00000000000E+00  0.19922400827E+04  0.19922400827E+04  0.50400001928E-02 0.  1.
        1   -1    0    0  501    0  0.00000000000E+00  0.00000000000E+00 -0.36329283206E+03  0.36329283210E+03  0.50400001928E-02 0. -1.
    10030    2    1    2    0    0  0.00000000000E+00  0.00000000000E+00  0.16289472507E+04  0.23555329148E+04  0.17014893968E+04 0.  0.
        1    1    3    3  502    0  0.28175057105E+03  0.80103478046E+03  0.88676021671E+03  0.12277555888E+04  0.50400001928E-02 0.  1.
       -1    1    3    3    0  502 -0.28175057105E+03 -0.80103478046E+03  0.74218703396E+03  0.11277773261E+04  0.50400001928E-02 0. -1.
</event>
<event>
 5   0  0.6601906E-05  0.1698000E+04  0.7818609E-02  0.8762506E-01
       -1   -1    0    0    0  501  0.00000000000E+00  0.00000000000E+00  0.90003949956E+03  0.90003949957E+03  0.50400001928E-02 0. -1.
        1   -1    0    0  501    0  0.00000000000E+00  0.00000000000E+00 -0.80085511228E+03  0.80085511230E+03  0.50400001928E-02 0.  1.
    10030    2    1    2    0    0  0.00000000000E+00  0.00000000000E+00  0.99184387274E+02  0.17008946119E+04  0.16980002762E+04 0.  0.
        1    1    3    3  502    0 -0.93620556127E+02 -0.42774479046E+03  0.77820458615E+03  0.89293493169E+03  0.50400001928E-02 0. -1.
       -1    1    3    3    0  502  0.93620556127E+02  0.42774479046E+03 -0.67902019888E+03  0.80795968019E+03  0.50400001928E-02 0.  1.
</event>
<event>
 5   0  0.1255362E-04  0.1704696E+04  0.7818609E-02  0.8758690E-01
        2   -1    0    0  501    0  0.00000000000E+00  0.00000000000E+00  0.15606060853E+04  0.15606060853E+04  0.25500000920E-02 0. -1.
       -2   -1    0    0    0  501  0.00000000000E+00  0.00000000000E+00 -0.46552268317E+03  0.46552268318E+03  0.25500000920E-02 0.  1.
    10030    2    1    2    0    0  0.00000000000E+00  0.00000000000E+00  0.10950834021E+04  0.20261287685E+04  0.17046964917E+04 0.  0.
        1    1    3    3  502    0  0.49319074145E+03 -0.43388093139E+03  0.11931018263E+04  0.13619771430E+04  0.50400001928E-02 0. -1.
       -1    1    3    3    0  502 -0.49319074145E+03  0.43388093139E+03 -0.98018424213E+02  0.66415162545E+03  0.50400001928E-02 0.  1.
</event>
<event>
 5   0  0.6615842E-05  0.1698641E+04  0.7818609E-02  0.8762140E-01
       -1   -1    0    0    0  501  0.00000000000E+00  0.00000000000E+00  0.68404300008E+03  0.68404300010E+03  0.50400001928E-02 0.  1.
        1   -1    0    0  501    0  0.00000000000E+00  0.00000000000E+00 -0.10545319217E+04  0.10545319217E+04  0.50400001928E-02 0. -1.
    10030    2    1    2    0    0  0.00000000000E+00  0.00000000000E+00 -0.37048892163E+03  0.17385749218E+04  0.16986408443E+04 0.  0.
        3    1    3    3  502    0  0.83259660251E+03 -0.46405531967E+02 -0.35019974284E+03  0.90443929923E+03  0.10100000352E+00 0.  1.
       -3    1    3    3    0  502 -0.83259660251E+03  0.46405531967E+02 -0.20289178794E+02  0.83413562260E+03  0.10100000352E+00 0. -1.
</event>
<event>
 5   0  0.6601906E-05  0.1697929E+04  0.7818609E-02  0.8762546E-01
        1   -1    0    0  501    0  0.00000000000E+00  0.00000000000E+00  0.99454760277E+03  0.99454760279E+03  0.50400001928E-02 0. -1.
       -1   -1    0    0    0  501  0.00000000000E+00  0.00000000000E+00 -0.72469234894E+03  0.72469234896E+03  0.50400001928E-02 0.  1.
    10030    2    1    2    0    0  0.00000000000E+00  0.00000000000E+00  0.26985525384E+03  0.17192399517E+04  0.16979293724E+04 0.  0.
        1    1    3    3  502    0 -0.50266351359E+03 -0.42748558851E+03  0.67579144506E+03  0.94451501498E+03  0.50400001928E-02 0. -1.
       -1    1    3    3    0  502  0.50266351359E+03  0.42748558851E+03 -0.40593619123E+03  0.77472493676E+03  0.50400001928E-02 0.  1.
</event>
<event>
 5   0  0.1393870E-04  0.1692378E+04  0.7818609E-02  0.8765723E-01
        2   -1    0    0  501    0  0.00000000000E+00  0.00000000000E+00  0.87631129827E+03  0.87631129828E+03  0.25500000920E-02 0.  1.
       -2   -1    0    0    0  501  0.00000000000E+00  0.00000000000E+00 -0.81710231603E+03  0.81710231603E+03  0.25500000920E-02 0. -1.
    10030    2    1    2    0    0  0.00000000000E+00  0.00000000000E+00  0.59208982245E+02  0.16934136143E+04  0.16923781981E+04 0.  0.
        3    1    3    3  502    0 -0.27719465892E+03 -0.46594278679E+03  0.67969145949E+03  0.86943662782E+03  0.10100000352E+00 0.  1.
       -3    1    3    3    0  502  0.27719465892E+03  0.46594278679E+03 -0.62048247724E+03  0.82397698649E+03  0.10100000352E+00 0. -1.
</event>
<event>
 5   0  0.1333546E-04  0.1727288E+04  0.7818609E-02  0.8745952E-01
       -2   -1    0    0    0  501  0.00000000000E+00  0.00000000000E+00  0.51654568428E+03  0.51654568428E+03  0.25500000920E-02 0.  1.
        2   -1    0    0  501    0  0.00000000000E+00  0.00000000000E+00 -0.14439784739E+04  0.14439784739E+04  0.25500000920E-02 0. -1.
    10030    2    1    2    0    0  0.00000000000E+00  0.00000000000E+00 -0.92743278961E+03  0.19605241582E+04  0.17272878728E+04 0.  0.
        5    1    3    3  502    0  0.35961670745E+03  0.76788699105E+03 -0.64982036669E+03  0.10682992120E+04  0.46999998093E+01 0. -1.
       -5    1    3    3    0  502 -0.35961670745E+03 -0.76788699105E+03 -0.27761242292E+03  0.89222494622E+03  0.46999998093E+01 0.  1.
</event>
<event>
 5   0  0.1269175E-04  0.1697058E+04  0.7818609E-02  0.8763044E-01
       -2   -1    0    0    0  501  0.00000000000E+00  0.00000000000E+00  0.87435636014E+03  0.87435636015E+03  0.25500000920E-02 0.  1.
        2   -1    0    0  501    0  0.00000000000E+00  0.00000000000E+00 -0.82346487632E+03  0.82346487632E+03  0.25500000920E-02 0. -1.
    10030    2    1    2    0    0  0.00000000000E+00  0.00000000000E+00  0.50891483825E+02  0.16978212365E+04  0.16970583396E+04 0.  0.
        2    1    3    3  502    0 -0.28658254121E+03  0.35233499252E+03 -0.69162764561E+03  0.82741664236E+03  0.25500000920E-02 0. -1.
       -2    1    3    3    0  502  0.28658254121E+03 -0.35233499252E+03  0.74251912943E+03  0.87040459411E+03  0.25500000920E-02 0.  1.
</event>
<event>
 5   0  0.1269175E-04  0.1699407E+04  0.7818609E-02  0.8761702E-01
       -2   -1    0    0    0  501  0.00000000000E+00  0.00000000000E+00  0.72802675606E+03  0.72802675607E+03  0.25500000920E-02 0.  1.
        2   -1    0    0  501    0  0.00000000000E+00  0.00000000000E+00 -0.99171672939E+03  0.99171672939E+03  0.25500000920E-02 0. -1.
    10030    2    1    2    0    0  0.00000000000E+00  0.00000000000E+00 -0.26368997333E+03  0.17197434855E+04  0.16994073243E+04 0.  0.
        2    1    3    3  502    0  0.74822132765E+02 -0.78693448419E+03 -0.44723470447E+03  0.90823076079E+03  0.25500000920E-02 0. -1.
       -2    1    3    3    0  502 -0.74822132765E+02  0.78693448419E+03  0.18354473114E+03  0.81151272467E+03  0.25500000920E-02 0.  1.
</event>
<event>
 5   0  0.1393870E-04  0.1704056E+04  0.7818609E-02  0.8759055E-01
       -2   -1    0    0    0  501  0.00000000000E+00  0.00000000000E+00  0.77133941237E+03  0.77133941238E+03  0.25500000920E-02 0. -1.
        2   -1    0    0  501    0  0.00000000000E+00  0.00000000000E+00 -0.94115710104E+03  0.94115710105E+03  0.25500000920E-02 0.  1.
    10030    2    1    2    0    0  0.00000000000E+00  0.00000000000E+00 -0.16981768867E+03  0.17124965134E+04  0.17040558269E+04 0.  0.
        3    1    3    3  502    0  0.59626083857E+02 -0.57123416115E+03 -0.71738130528E+03  0.91896663927E+03  0.10100000352E+00 0.  1.
       -3    1    3    3    0  502 -0.59626083857E+02  0.57123416115E+03  0.54756361661E+03  0.79352987415E+03  0.10100000352E+00 0. -1.
</event>
<event>
 5   0  0.6539134E-05  0.1696877E+04  0.7818609E-02  0.8763147E-01
        1   -1    0    0  501    0  0.00000000000E+00  0.00000000000E+00  0.10966390801E+04  0.10966390801E+04  0.50400001928E-02 0.  1.
       -1   -1    0    0    0  501  0.00000000000E+00  0.00000000000E+00 -0.65641309487E+03  0.65641309488E+03  0.50400001928E-02 0. -1.
    10030    2    1    2    0    0  0.00000000000E+00  0.00000000000E+00  0.44022598527E+03  0.17530521750E+04  0.16968774294E+04 0.  0.
        2    1    3    3  502    0  0.13963061917E+03 -0.12815862048E+03 -0.63426335140E+03  0.66197533244E+03  0.25500000920E-02 0. -1.
       -2    1    3    3    0  502 -0.13963061917E+03  0.12815862048E+03  0.10744893367E+04  0.10910768426E+04  0.25500000920E-02 0.  1.
</event>
<event>
 5   0  0.1255362E-04  0.1693718E+04  0.7818609E-02  0.8764955E-01
       -2   -1    0    0    0  501  0.00000000000E+00  0.00000000000E+00  0.87319263396E+03  0.87319263397E+03  0.25500000920E-02 0.  1.
        2   -1    0    0  501    0  0.00000000000E+00  0.00000000000E+00 -0.82131936556E+03  0.82131936556E+03  0.25500000920E-02 0. -1.
    10030    2    1    2    0    0  0.00000000000E+00  0.00000000000E+00  0.51873268405E+02  0.16945119995E+04  0.16937178279E+04 0.  0.
        1    1    3    3  502    0  0.10619360409E+03 -0.41187650074E+03  0.75857139483E+03  0.86968378994E+03  0.50400001928E-02 0.  1.
       -1    1    3    3    0  502 -0.10619360409E+03  0.41187650074E+03 -0.70669812643E+03  0.82482820959E+03  0.50400001928E-02 0. -1.
</event>
<event>
 5   0  0.6615842E-05  0.1702297E+04  0.7818609E-02  0.8760055E-01
       -1   -1    0    0    0  501  0.00000000000E+00  0.00000000000E+00  0.13169933408E+04  0.13169933408E+04  0.50400001928E-02 0. -1.
        1   -1    0    0  501    0  0.00000000000E+00  0.00000000000E+00 -0.55008171154E+03  0.55008171156E+03  0.50400001928E-02 0.  1.
    10030    2    1    2    0    0  0.00000000000E+00  0.00000000000E+00  0.76691162929E+03  0.18670750524E+04  0.17022972138E+04 0.  0.
        3    1    3    3  502    0  0.18232339984E+03  0.80429986389E+03  0.15257060250E+03  0.83870012050E+03  0.10100000352E+00 0.  1.
       -3    1    3    3    0  502 -0.18232339984E+03 -0.80429986389E+03  0.61434102678E+03  0.10283749319E+04  0.10100000352E+00 0. -1.
</event>
<event>
 5   0  0.6615842E-05  0.1699522E+04  0.7818609E-02  0.8761637E-01
       -1   -1    0    0    0  501  0.00000000000E+00  0.00000000000E+00  0.66694900715E+03  0.66694900717E+03  0.50400001928E-02 0.  1.
        1   -1    0    0  501    0  0.00000000000E+00  0.00000000000E+00 -0.10826821186E+04  0.10826821186E+04  0.50400001928E-02 0. -1.
    10030    2    1    2    0    0  0.00000000000E+00  0.00000000000E+00 -0.41573311147E+03  0.17496311258E+04  0.16995220082E+04 0.  0.
        3    1    3    3  502    0 -0.49438966416E+03 -0.10648749898E+02 -0.91929843074E+03  0.10438602162E+04  0.10100000352E+00 0. -1.
       -3    1    3    3    0  502  0.49438966416E+03  0.10648749898E+02  0.50356531928E+03  0.70577090963E+03  0.10100000352E+00 0.  1.
</event>
<event>
 5   0  0.6564887E-05  0.1651599E+04  0.7818609E-02  0.8789461E-01
        1   -1    0    0  501    0  0.00000000000E+00  0.00000000000E+00  0.19630068290E+04  0.19630068290E+04  0.50400001928E-02 0.  1.
       -1   -1    0    0    0  501  0.00000000000E+00  0.00000000000E+00 -0.34739827211E+03  0.34739827215E+03  0.50400001928E-02 0. -1.
    10030    2    1    2    0    0  0.00000000000E+00  0.00000000000E+00  0.16156085569E+04  0.23104051012E+04  0.16515994437E+04 0.  0.
        4    1    3    3  502    0 -0.35199777925E+03  0.19208635600E+03 -0.20205826091E+03  0.44903091036E+03  0.12699999809E+01 0. -1.
       -4    1    3    3    0  502  0.35199777925E+03 -0.19208635600E+03  0.18176668178E+04  0.18613741908E+04  0.12699999809E+01 0.  1.
</event>
<event>
 5   0  0.1285639E-04  0.1703907E+04  0.7818609E-02  0.8759139E-01
        2   -1    0    0  501    0  0.00000000000E+00  0.00000000000E+00  0.17393217368E+04  0.17393217368E+04  0.25500000920E-02 0. -1.
       -2   -1    0    0    0  501  0.00000000000E+00  0.00000000000E+00 -0.41730313640E+03  0.41730313640E+03  0.25500000920E-02 0.  1.
    10030    2    1    2    0    0  0.00000000000E+00  0.00000000000E+00  0.13220186004E+04  0.21566248732E+04  0.17039065889E+04 0.  0.
        4    1    3    3  502    0  0.44706111569E+03  0.53421817154E+03  0.40212230577E+02  0.69776165871E+03  0.12699999809E+01 0.  1.
       -4    1    3    3    0  502 -0.44706111569E+03 -0.53421817154E+03  0.12818063698E+04  0.14588632145E+04  0.12699999809E+01 0. -1.
</event>
<event>
 5   0  0.6615842E-05  0.1702236E+04  0.7818609E-02  0.8760090E-01
        1   -1    0    0  501    0  0.00000000000E+00  0.00000000000E+00  0.11805386000E+04  0.11805386000E+04  0.50400001928E-02 0.  1.
       -1   -1    0    0    0  501  0.00000000000E+00  0.00000000000E+00 -0.61362005161E+03  0.61362005163E+03  0.50400001928E-02 0. -1.
    10030    2    1    2    0    0  0.00000000000E+00  0.00000000000E+00  0.56691854835E+03  0.17941586516E+04  0.17022363604E+04 0.  0.
        3    1    3    3  502    0  0.92631734611E+02  0.67218904599E+03 -0.25807916055E+03  0.72596392136E+03  0.10100000352E+00 0. -1.
       -3    1    3    3    0  502 -0.92631734611E+02 -0.67218904599E+03  0.82499770890E+03  0.10681947302E+04  0.10100000352E+00 0.  1.
</event>
<event>
 5   0  0.1333546E-04  0.1700413E+04  0.7818609E-02  0.8761129E-01
        2   -1    0    0  501    0  0.00000000000E+00  0.00000000000E+00  0.83491120180E+03  0.83491120180E+03  0.25500000920E-02 0.  1.
       -2   -1    0    0    0  501  0.00000000000E+00  0.00000000000E+00 -0.86578157433E+03  0.86578157433E+03  0.25500000920E-02 0. -1.
    10030    2    1    2    0    0  0.00000000000E+00  0.00000000000E+00 -0.30870372527E+02  0.17006927761E+04  0.17004125790E+04 0.  0.
        5    1    3    3  502    0 -0.56378740410E+03  0.31068566329E+03 -0.57090659648E+03  0.86042910824E+03  0.46999998093E+01 0. -1.
       -5    1    3    3    0  502  0.56378740410E+03 -0.31068566329E+03  0.54003622396E+03  0.84026366789E+03  0.46999998093E+01 0.  1.
</event>
<event>
 5   0  0.6615842E-05  0.1661480E+04  0.7818609E-02  0.8783644E-01
        1   -1    0    0  501    0  0.00000000000E+00  0.00000000000E+00  0.79919235048E+03  0.79919235049E+03  0.50400001928E-02 0. -1.
       -1   -1    0    0    0  501  0.00000000000E+00  0.00000000000E+00 -0.86353280653E+03  0.86353280655E+03  0.50400001928E-02 0.  1.
    10030    2    1    2    0    0  0.00000000000E+00  0.00000000000E+00 -0.64340456056E+02  0.16627251570E+04  0.16614798384E+04 0.  0.
        3    1    3    3  502    0  0.57103879556E+03  0.51982224317E+03 -0.33871392556E+03  0.84322452769E+03  0.10100000352E+00 0.  1.
       -3    1    3    3    0  502 -0.57103879556E+03 -0.51982224317E+03  0.27437346950E+03  0.81950062935E+03  0.10100000352E+00 0. -1.
</event>
<event>
 5   0  0.1255362E-04  0.1701722E+04  0.7818609E-02  0.8760383E-01
        2   -1    0    0  501    0  0.00000000000E+00  0.00000000000E+00  0.80592988879E+03  0.80592988879E+03  0.25500000920E-02 0.  1.
       -2   -1    0    0    0  501  0.00000000000E+00  0.00000000000E+00 -0.89829701826E+03  0.89829701826E+03  0.25500000920E-02 0. -1.
    10030    2    1    2    0    0  0.00000000000E+00  0.00000000000E+00 -0.92367129469E+02  0.17042269071E+04  0.17017219703E+04 0.  0.
        1    1    3    3  502    0  0.14954811861E+03  0.81088688880E+03 -0.25640260424E+03  0.86350708260E+03  0.50400001928E-02 0. -1.
       -1    1    3    3    0  502 -0.14954811861E+03 -0.81088688880E+03  0.16403547477E+03  0.84071982445E+03  0.50400001928E-02 0.  1.
</event>
<event>
 5   0  0.6615842E-05  0.1699485E+04  0.7818609E-02  0.8761658E-01
        1   -1    0    0  501    0  0.00000000000E+00  0.00000000000E+00  0.10699824977E+04  0.10699824977E+04  0.50400001928E-02 0.  1.
       -1   -1    0    0    0  501  0.00000000000E+00  0.00000000000E+00 -0.67483565572E+03  0.67483565573E+03  0.50400001928E-02 0. -1.
    10030    2    1    2    0    0  0.00000000000E+00  0.00000000000E+00  0.39514684201E+03  0.17448181535E+04  0.16994850285E+04 0.  0.
        3    1    3    3  502    0  0.28352803101E+03  0.78949106551E+03  0.58391615976E+02  0.84088874288E+03  0.10100000352E+00 0.  1.
       -3    1    3    3    0  502 -0.28352803101E+03 -0.78949106551E+03  0.33675522603E+03  0.90392941060E+03  0.10100000352E+00 0. -1.
</event>
<event>
 5   0  0.1333546E-04  0.1704372E+04  0.7818609E-02  0.8758875E-01
        2   -1    0    0  501    0  0.00000000000E+00  0.00000000000E+00  0.82997835819E+03  0.82997835819E+03  0.25500000920E-02 0.  1.
       -2   -1    0    0    0  501  0.00000000000E+00  0.00000000000E+00 -0.87498807875E+03  0.87498807876E+03  0.25500000920E-02 0. -1.
    10030    2    1    2    0    0  0.00000000000E+00  0.00000000000E+00 -0.45009720563E+02  0.17049664370E+04  0.17043722235E+04 0.  0.
        5    1    3    3  502    0  0.42365496205E+03  0.54067824143E+03  0.48203453221E+03  0.83916379085E+03  0.46999998093E+01 0.  1.
       -5    1    3    3    0  502 -0.42365496205E+03 -0.54067824143E+03 -0.52704425277E+03  0.86580264611E+03  0.46999998093E+01 0. -1.
</event>
<event>
 5   0  0.1393870E-04  0.1700931E+04  0.7818609E-02  0.8760834E-01
       -2   -1    0    0    0  501  0.00000000000E+00  0.00000000000E+00  0.61833369748E+03  0.61833369749E+03  0.25500000920E-02 0.  1.
        2   -1    0    0  501    0  0.00000000000E+00  0.00000000000E+00 -0.11697429280E+04  0.11697429280E+04  0.25500000920E-02 0. -1.
    10030    2    1    2    0    0  0.00000000000E+00  0.00000000000E+00 -0.55140923051E+03  0.17880766255E+04  0.17009308860E+04 0.  0.
        3    1    3    3  502    0  0.49390501763E+03 -0.11855541149E+03 -0.99277723776E+03  0.11151700346E+04  0.10100000352E+00 0. -1.
       -3    1    3    3    0  502 -0.49390501763E+03  0.11855541149E+03  0.44136800725E+03  0.67290659089E+03  0.10100000352E+00 0.  1.
</event>
<event>
 5   0  0.1393870E-04  0.1697025E+04  0.7818609E-02  0.8763063E-01
        2   -1    0    0  501    0  0.00000000000E+00  0.00000000000E+00  0.22646387953E+04  0.22646387953E+04  0.25500000920E-02 0. -1.
       -2   -1    0    0    0  501  0.00000000000E+00  0.00000000000E+00 -0.31791991100E+03  0.31791991101E+03  0.25500000920E-02 0.  1.
    10030    2    1    2    0    0  0.00000000000E+00  0.00000000000E+00  0.19467188843E+04  0.25825587063E+04  0.16970253555E+04 0.  0.
        3    1    3    3  502    0  0.20594471254E+03 -0.79571840314E+03  0.65271928892E+03  0.10495825275E+04  0.10100000352E+00 0. -1.
       -3    1    3    3    0  502 -0.20594471254E+03  0.79571840314E+03  0.12939995954E+04  0.15329761788E+04  0.10100000352E+00 0.  1.
</event>
<event>
 5   0  0.6601906E-05  0.1689289E+04  0.7818609E-02  0.8767497E-01
        1   -1    0    0  501    0  0.00000000000E+00  0.00000000000E+00  0.71861702109E+03  0.71861702110E+03  0.50400001928E-02 0.  1.
       -1   -1    0    0    0  501  0.00000000000E+00  0.00000000000E+00 -0.99277420801E+03  0.99277420802E+03  0.50400001928E-02 0. -1.
    10030    2    1    2    0    0  0.00000000000E+00  0.00000000000E+00 -0.27415718692E+03  0.17113912291E+04  0.16892891333E+04 0.  0.
        1    1    3    3  502    0 -0.22687685215E+02  0.32250367980E+03  0.65345201329E+03  0.72905616261E+03  0.50400001928E-02 0.  1.
       -1    1    3    3    0  502  0.22687685215E+02 -0.32250367980E+03 -0.92760920021E+03  0.98233506651E+03  0.50400001928E-02 0. -1.
</event>
<event>
 5   0  0.6564887E-05  0.1692752E+04  0.7818609E-02  0.8765509E-01
       -1   -1    0    0    0  501  0.00000000000E+00  0.00000000000E+00  0.66125832634E+03  0.66125832636E+03  0.50400001928E-02 0. -1.
        1   -1    0    0  501    0  0.00000000000E+00  0.00000000000E+00 -0.10833166633E+04  0.10833166634E+04  0.50400001928E-02 0.  1.
    10030    2    1    2    0    0  0.00000000000E+00  0.00000000000E+00 -0.42205833700E+03  0.17445749897E+04  0.16927517996E+04 0.  0.
        4    1    3    3  502    0  0.31043676737E+02 -0.45397466033E+03  0.52446726877E+03  0.69435166234E+03  0.12699999809E+01 0. -1.
       -4    1    3    3    0  502 -0.31043676737E+02  0.45397466033E+03 -0.94652560577E+03  0.10502233274E+04  0.12699999809E+01 0.  1.
</event>
<event>
 5   0  0.6601906E-05  0.1711691E+04  0.7818609E-02  0.8754724E-01
       -1   -1    0    0    0  501  0.00000000000E+00  0.00000000000E+00  0.41268016721E+03  0.41268016725E+03  0.50400001928E-02 0.  1.
        1   -1    0    0  501    0  0.00000000000E+00  0.00000000000E+00 -0.17749134150E+04  0.17749134150E+04  0.50400001928E-02 0. -1.
    10030    2    1    2    0    0  0.00000000000E+00  0.00000000000E+00 -0.13622332478E+04  0.21875935823E+04  0.17116910527E+04 0.  0.
        1    1    3    3  502    0  0.13869949531E+03 -0.16145938040E+02  0.39802364895E+03  0.42180690661E+03  0.50400001928E-02 0.  1.
       -1    1    3    3    0  502 -0.13869949531E+03  0.16145938040E+02 -0.17602568968E+04  0.17657866756E+04  0.50400001928E-02 0. -1.
</event>
<event>
 5   0  0.4720875E-05  0.1692715E+04  0.7818609E-02  0.8765530E-01
       -3   -1    0    0    0  501  0.00000000000E+00  0.00000000000E+00  0.13489188225E+04  0.13489188263E+04  0.10100000352E+00 0.  1.
        3   -1    0    0  501    0  0.00000000000E+00  0.00000000000E+00 -0.53103348376E+03  0.53103349337E+03  0.10100000352E+00 0. -1.
    10030    2    1    2    0    0  0.00000000000E+00  0.00000000000E+00  0.81788533874E+03  0.18799523197E+04  0.16927150666E+04 0.  0.
        4    1    3    3  502    0  0.33560744203E+03 -0.75104606701E+03  0.62999916548E+03  0.10361482091E+04  0.12699999809E+01 0.  1.
       -4    1    3    3    0  502 -0.33560744203E+03  0.75104606701E+03  0.18788617326E+03  0.84380411051E+03  0.12699999809E+01 0. -1.
</event>
<event>
 5   0  0.6615842E-05  0.1698892E+04  0.7818609E-02  0.8761997E-01
        1   -1    0    0  501    0  0.00000000000E+00  0.00000000000E+00  0.15292928413E+04  0.15292928414E+04  0.50400001928E-02 0.  1.
       -1   -1    0    0    0  501  0.00000000000E+00  0.00000000000E+00 -0.47182472368E+03  0.47182472371E+03  0.50400001928E-02 0. -1.
    10030    2    1    2    0    0  0.00000000000E+00  0.00000000000E+00  0.10574681177E+04  0.20011175651E+04  0.16988916061E+04 0.  0.
        3    1    3    3  502    0 -0.52013344222E+02 -0.32211798260E+03 -0.39506443091E+03  0.51238783891E+03  0.10100000352E+00 0. -1.
       -3    1    3    3    0  502  0.52013344222E+02  0.32211798260E+03  0.14525325486E+04  0.14887297262E+04  0.10100000352E+00 0.  1.
</event>
<event>
 5   0  0.6564887E-05  0.1696621E+04  0.7818609E-02  0.8763294E-01
        1   -1    0    0  501    0  0.00000000000E+00  0.00000000000E+00  0.71475198046E+03  0.71475198048E+03  0.50400001928E-02 0. -1.
       -1   -1    0    0    0  501  0.00000000000E+00  0.00000000000E+00 -0.10068254743E+04  0.10068254743E+04  0.50400001928E-02 0.  1.
    10030    2    1    2    0    0  0.00000000000E+00  0.00000000000E+00 -0.29207349380E+03  0.17215774548E+04  0.16966207611E+04 0.  0.
        4    1    3    3  502    0  0.46888783302E+03 -0.68413992486E+03  0.34700252696E+02  0.83012586827E+03  0.12699999809E+01 0. -1.
       -4    1    3    3    0  502 -0.46888783302E+03  0.68413992486E+03 -0.32677374649E+03  0.89145158648E+03  0.12699999809E+01 0.  1.
</event>
<event>
 5   0  0.6539134E-05  0.1712793E+04  0.7818609E-02  0.8754101E-01
        1   -1    0    0  501    0  0.00000000000E+00  0.00000000000E+00  0.61855805650E+03  0.61855805652E+03  0.50400001928E-02 0.  1.
       -1   -1    0    0    0  501  0.00000000000E+00  0.00000000000E+00 -0.11856856000E+04  0.11856856000E+04  0.50400001928E-02 0. -1.
    10030    2    1    2    0    0  0.00000000000E+00  0.00000000000E+00 -0.56712754346E+03  0.18042436565E+04  0.17127934848E+04 0.  0.
        2    1    3    3  502    0  0.69690191201E+03 -0.48780435854E+03 -0.38779115224E+03  0.93488359967E+03  0.25500000920E-02 0.  1.
       -2    1    3    3    0  502 -0.69690191201E+03  0.48780435854E+03 -0.17933639122E+03  0.86936005682E+03  0.25500000920E-02 0. -1.
</event>
<event>
 5   0  0.1269175E-04  0.1720942E+04  0.7818609E-02  0.8749510E-01
        2   -1    0    0  501    0  0.00000000000E+00  0.00000000000E+00  0.68516264828E+03  0.68516264829E+03  0.25500000920E-02 0.  1.
       -2   -1    0    0    0  501  0.00000000000E+00  0.00000000000E+00 -0.10806341815E+04  0.10806341815E+04  0.25500000920E-02 0. -1.
    10030    2    1    2    0    0  0.00000000000E+00  0.00000000000E+00 -0.39547153325E+03  0.17657968298E+04  0.17209418092E+04 0.  0.
        2    1    3    3  502    0 -0.27185391245E+03  0.52293944060E+03 -0.84100518602E+03  0.10269663729E+04  0.25500000920E-02 0. -1.
       -2    1    3    3    0  502  0.27185391245E+03 -0.52293944060E+03  0.44553365276E+03  0.73883045687E+03  0.25500000920E-02 0.  1.
</event>
<event>
 5   0  0.6834837E-05  0.1701050E+04  0.7818609E-02  0.8760766E-01
        1   -1    0    0  501    0  0.00000000000E+00  0.00000000000E+00  0.19874837506E+04  0.19874837506E+04  0.50400001928E-02 0. -1.
       -1   -1    0    0    0  501  0.00000000000E+00  0.00000000000E+00 -0.36397409457E+03  0.36397409461E+03  0.50400001928E-02 0.  1.
    10030    2    1    2    0    0  0.00000000000E+00  0.00000000000E+00  0.16235096560E+04  0.23514578452E+04  0.17010497919E+04 0.  0.
        5    1    3    3  502    0 -0.61007113348E+03  0.80735680248E+02  0.19776855760E+00  0.61540813050E+03  0.46999998093E+01 0.  1.
       -5    1    3    3    0  502  0.61007113348E+03 -0.80735680248E+02  0.16233118874E+04  0.17360497147E+04  0.46999998093E+01 0. -1.
</event>
<event>
 5   0  0.6615842E-05  0.1703808E+04  0.7818609E-02  0.8759196E-01
       -1   -1    0    0    0  501  0.00000000000E+00  0.00000000000E+00  0.62473687143E+03  0.62473687145E+03  0.50400001928E-02 0. -1.
        1   -1    0    0  501    0  0.00000000000E+00  0.00000000000E+00 -0.11616735685E+04  0.11616735686E+04  0.50400001928E-02 0.  1.
    10030    2    1    2    0    0  0.00000000000E+00  0.00000000000E+00 -0.53693669712E+03  0.17864104400E+04  0.17038078658E+04 0.  0.
        3    1    3    3  502    0 -0.34224599234E+03 -0.61185727034E+03 -0.77591444814E+03  0.10457269622E+04  0.10100000352E+00 0.  1.
       -3    1    3    3    0  502  0.34224599234E+03  0.61185727034E+03  0.23897775102E+03  0.74068347776E+03  0.10100000352E+00 0. -1.
</event>
<event>
 5   0  0.1269175E-04  0.1812125E+04  0.7818609E-02  0.8699878E-01
       -2   -1    0    0    0  501  0.00000000000E+00  0.00000000000E+00  0.79426425218E+03  0.79426425218E+03  0.25500000920E-02 0. -1.
        2   -1    0    0  501    0  0.00000000000E+00  0.00000000000E+00 -0.10335968647E+04  0.10335968648E+04  0.25500000920E-02 0.  1.
    10030    2    1    2    0    0  0.00000000000E+00  0.00000000000E+00 -0.23933261257E+03  0.18278611169E+04  0.18121247648E+04 0.  0.
        2    1    3    3  502    0 -0.77674791189E+02  0.81492490864E+03 -0.51138525126E+03  0.96522062511E+03  0.25500000920E-02 0.  1.
       -2    1    3    3    0  502  0.77674791189E+02 -0.81492490864E+03  0.27205263869E+03  0.86264049183E+03  0.25500000920E-02 0. -1.
</event>
<event>
 5   0  0.6539134E-05  0.1706267E+04  0.7818609E-02  0.8757798E-01
       -1   -1    0    0    0  501  0.00000000000E+00  0.00000000000E+00  0.95848075362E+03  0.95848075363E+03  0.50400001928E-02 0. -1.
        1   -1    0    0  501    0  0.00000000000E+00  0.00000000000E+00 -0.75936521194E+03  0.75936521196E+03  0.50400001928E-02 0.  1.
    10030    2    1    2    0    0  0.00000000000E+00  0.00000000000E+00  0.19911554168E+03  0.17178459656E+04  0.17062672014E+04 0.  0.
        2    1    3    3  502    0 -0.72666652001E+03  0.36928233395E+03  0.35310652548E+03  0.88831182128E+03  0.25500000920E-02 0. -1.
       -2    1    3    3    0  502  0.72666652001E+03 -0.36928233395E+03 -0.15399098380E+03  0.82953414431E+03  0.25500000920E-02 0.  1.
</event>
<event>
 5   0  0.6834837E-05  0.1701802E+04  0.7818609E-02  0.8760337E-01
        1   -1    0    0  501    0  0.00000000000E+00  0.00000000000E+00  0.38774367972E+03  0.38774367975E+03  0.50400001928E-02 0.  1.
       -1   -1    0    0    0  501  0.00000000000E+00  0.00000000000E+00 -0.18672961035E+04  0.18672961035E+04  0.50400001928E-02 0. -1.
    10030    2    1    2    0    0  0.00000000000E+00  0.00000000000E+00 -0.14795524238E+04  0.22550397833E+04  0.17018017068E+04 0.  0.
        5    1    3    3  502    0  0.31321146179E+03  0.78832387067E+03 -0.65133973151E+03  0.10694959003E+04  0.46999998093E+01 0.  1.
       -5    1    3    3    0  502 -0.31321146179E+03 -0.78832387067E+03 -0.82821269230E+03  0.11855438830E+04  0.46999998093E+01 0. -1.
</event>
<event>
 5   0  0.1255362E-04  0.1684718E+04  0.7818609E-02  0.8770129E-01
       -2   -1    0    0    0  501  0.00000000000E+00  0.00000000000E+00  0.37636242841E+03  0.37636242842E+03  0.25500000920E-02 0.  1.
        2   -1    0    0  501    0  0.00000000000E+00  0.00000000000E+00 -0.18853328144E+04  0.18853328144E+04  0.25500000920E-02 0. -1.
    10030    2    1    2    0    0  0.00000000000E+00  0.00000000000E+00 -0.15089703860E+04  0.22616952429E+04  0.16847177050E+04 0.  0.
        1    1    3    3  502    0 -0.76822893776E+03 -0.20977724824E+03 -0.11230832070E+04  0.13767708903E+04  0.50400001928E-02 0. -1.
       -1    1    3    3    0  502  0.76822893776E+03  0.20977724824E+03 -0.38588717905E+03  0.88492435252E+03  0.50400001928E-02 0.  1.
</event>
<event>
 5   0  0.1269175E-04  0.1715647E+04  0.7818609E-02  0.8752490E-01
       -2   -1    0    0    0  501  0.00000000000E+00  0.00000000000E+00  0.13995943038E+04  0.13995943038E+04  0.25500000920E-02 0.  1.
        2   -1    0    0  501    0  0.00000000000E+00  0.00000000000E+00 -0.52576745172E+03  0.52576745172E+03  0.25500000920E-02 0. -1.
    10030    2    1    2    0    0  0.00000000000E+00  0.00000000000E+00  0.87382685208E+03  0.19253617555E+04  0.17156469690E+04 0.  0.
        2    1    3    3  502    0 -0.40235114040E+03 -0.67067295048E+03  0.83236845052E+03  0.11421584321E+04  0.25500000920E-02 0.  1.
       -2    1    3    3    0  502  0.40235114040E+03  0.67067295048E+03  0.41458401555E+02  0.78320332338E+03  0.25500000920E-02 0. -1.
</event>
<event>
 5   0  0.1285639E-04  0.1689791E+04  0.7818609E-02  0.8767208E-01
       -2   -1    0    0    0  501  0.00000000000E+00  0.00000000000E+00  0.31741026500E+03  0.31741026501E+03  0.25500000920E-02 0. -1.
        2   -1    0    0  501    0  0.00000000000E+00  0.00000000000E+00 -0.22489768775E+04  0.22489768775E+04  0.25500000920E-02 0.  1.
    10030    2    1    2    0    0  0.00000000000E+00  0.00000000000E+00 -0.19315666125E+04  0.25663871425E+04  0.16897909299E+04 0.  0.
        4    1    3    3  502    0 -0.21377450935E+03 -0.63325069062E+03 -0.18080207802E+03  0.69238499574E+03  0.12699999809E+01 0. -1.
       -4    1    3    3    0  502  0.21377450935E+03  0.63325069062E+03 -0.17507645344E+04  0.18740021467E+04  0.12699999809E+01 0.  1.
</event>
<event>
 5   0  0.1333546E-04  0.1702449E+04  0.7818609E-02  0.8759969E-01
        2   -1    0    0  501    0  0.00000000000E+00  0.00000000000E+00  0.25735314337E+04  0.25735314337E+04  0.25500000920E-02 0. -1.
       -2   -1    0    0    0  501  0.00000000000E+00  0.00000000000E+00 -0.28155224924E+03  0.28155224926E+03  0.25500000920E-02 0.  1.
    10030    2    1    2    0    0  0.00000000000E+00  0.00000000000E+00  0.22919791844E+04  0.28550836829E+04  0.17024494867E+04 0.  0.
        5    1    3    3  502    0  0.21477502033E+02 -0.21880333878E+02  0.25725833541E+04  0.25727703426E+04  0.46999998093E+01 0. -1.
       -5    1    3    3    0  502 -0.21477502033E+02  0.21880333878E+02 -0.28060416965E+03  0.28231334033E+03  0.46999998093E+01 0.  1.
</event>
<event>
 5   0  0.1285639E-04  0.1692184E+04  0.7818609E-02  0.8765835E-01
       -2   -1    0    0    0  501  0.00000000000E+00  0.00000000000E+00  0.44515560884E+03  0.44515560885E+03  0.25500000920E-02 0. -1.
        2   -1    0    0  501    0  0.00000000000E+00  0.00000000000E+00 -0.16081381143E+04  0.16081381143E+04  0.25500000920E-02 0.  1.
    10030    2    1    2    0    0  0.00000000000E+00  0.00000000000E+00 -0.11629825054E+04  0.20532937231E+04  0.16921840342E+04 0.  0.
        4    1    3    3  502    0  0.48460791946E+03 -0.16671616757E+03 -0.13983806827E+04  0.14893318176E+04  0.12699999809E+01 0.  1.
       -4    1    3    3    0  502 -0.48460791946E+03  0.16671616757E+03  0.23539817729E+03  0.56396190555E+03  0.12699999809E+01 0. -1.
</event>
<event>
 5   0  0.1255362E-04  0.1696049E+04  0.7818609E-02  0.8763621E-01
        2   -1    0    0  501    0  0.00000000000E+00  0.00000000000E+00  0.19680938401E+04  0.19680938401E+04  0.25500000920E-02 0. -1.
       -2   -1    0    0    0  501  0.00000000000E+00  0.00000000000E+00 -0.36540214730E+03  0.36540214731E+03  0.25500000920E-02 0.  1.
    10030    2    1    2    0    0  0.00000000000E+00  0.00000000000E+00  0.16026916928E+04  0.23334959874E+04  0.16960491918E+04 0.  0.
        1    1    3    3  502    0 -0.56743699416E+03 -0.19442161175E+03 -0.23426730370E+02  0.60027770005E+03  0.50400001928E-02 0.  1.
       -1    1    3    3    0  502  0.56743699416E+03  0.19442161175E+03  0.16261184232E+04  0.17332182874E+04  0.50400001928E-02 0. -1.
</event>
<event>
 5   0  0.6539134E-05  0.1701218E+04  0.7818609E-02  0.8760670E-01
       -1   -1    0    0    0  501  0.00000000000E+00  0.00000000000E+00  0.64609222125E+03  0.64609222127E+03  0.50400001928E-02 0.  1.
        1   -1    0    0  501    0  0.00000000000E+00  0.00000000000E+00 -0.11198639868E+04  0.11198639869E+04  0.50400001928E-02 0. -1.
    10030    2    1    2    0    0  0.00000000000E+00  0.00000000000E+00 -0.47377176559E+03  0.17659562081E+04  0.17012176942E+04 0.  0.
        2    1    3    3  502    0  0.73025639853E+03  0.18981319913E+03  0.17078267516E+03  0.77360854462E+03  0.25500000920E-02 0.  1.
       -2    1    3    3    0  502 -0.73025639853E+03 -0.18981319913E+03 -0.64455444075E+03  0.99234766350E+03  0.25500000920E-02 0. -1.
</event>
<event>
 5   0  0.1269175E-04  0.1700913E+04  0.7818609E-02  0.8760844E-01
        2   -1    0    0  501    0  0.00000000000E+00  0.00000000000E+00  0.16556038049E+04  0.16556038049E+04  0.25500000920E-02 0. -1.
       -2   -1    0    0    0  501  0.00000000000E+00  0.00000000000E+00 -0.43686548188E+03  0.43686548189E+03  0.25500000920E-02 0.  1.
    10030    2    1    2    0    0  0.00000000000E+00  0.00000000000E+00  0.12187383230E+04  0.20924692868E+04  0.17009128773E+04 0.  0.
        2    1    3    3  502    0  0.46297576561E+03  0.71319789472E+03  0.62989393935E+03  0.10581891000E+04  0.25500000920E-02 0.  1.
       -2    1    3    3    0  502 -0.46297576561E+03 -0.71319789472E+03  0.58884438369E+03  0.10342801868E+04  0.25500000920E-02 0. -1.
</event>
<event>
 5   0  0.1393870E-04  0.1712189E+04  0.7818609E-02  0.8754443E-01
       -2   -1    0    0    0  501  0.00000000000E+00  0.00000000000E+00  0.61302091305E+03  0.61302091305E+03  0.25500000920E-02 0. -1.
        2   -1    0    0  501    0  0.00000000000E+00  0.00000000000E+00 -0.11955511397E+04  0.11955511397E+04  0.25500000920E-02 0.  1.
    10030    2    1    2    0    0  0.00000000000E+00  0.00000000000E+00 -0.58253022670E+03  0.18085720528E+04  0.17121890682E+04 0.  0.
        3    1    3    3  502    0  0.29550492810E+03 -0.67795157301E+03 -0.74676638561E+03  0.10510002582E+04  0.10100000352E+00 0.  1.
       -3    1    3    3    0  502 -0.29550492810E+03  0.67795157301E+03  0.16423615891E+03  0.75757179460E+03  0.10100000352E+00 0. -1.
</event>
<event>
 5   0  0.4720875E-05  0.1720525E+04  0.7818609E-02  0.8749744E-01
       -4   -1    0    0    0  501  0.00000000000E+00  0.00000000000E+00  0.86896265832E+03  0.86896358638E+03  0.12699999809E+01 0. -1.
        4   -1    0    0  501    0  0.00000000000E+00  0.00000000000E+00 -0.85164746096E+03  0.85164840789E+03  0.12699999809E+01 0.  1.
    10030    2    1    2    0    0  0.00000000000E+00  0.00000000000E+00  0.17315197356E+02  0.17206119943E+04  0.17205248672E+04 0.  0.
        1    1    3    3  502    0 -0.18131734545E+03 -0.79678811488E+03 -0.26025037447E+03  0.85759987011E+03  0.50400001928E-02 0.  1.
       -1    1    3    3    0  502  0.18131734545E+03  0.79678811488E+03  0.27756557183E+03  0.86301212417E+03  0.50400001928E-02 0. -1.
</event>
<event>
 5   0  0.1255362E-04  0.1699627E+04  0.7818609E-02  0.8761577E-01
        2   -1    0    0  501    0  0.00000000000E+00  0.00000000000E+00  0.74941131950E+03  0.74941131950E+03  0.25500000920E-02 0.  1.
       -2   -1    0    0    0  501  0.00000000000E+00  0.00000000000E+00 -0.96366681665E+03  0.96366681665E+03  0.25500000920E-02 0. -1.
    10030    2    1    2    0    0  0.00000000000E+00  0.00000000000E+00 -0.21425549715E+03  0.17130781362E+04  0.16996268068E+04 0.  0.
        1    1    3    3  502    0 -0.37326268144E+03 -0.40000816502E+03 -0.76254431441E+03  0.93851232965E+03  0.50400001928E-02 0. -1.
       -1    1    3    3    0  502  0.37326268144E+03  0.40000816502E+03  0.54828881726E+03  0.77456580650E+03  0.50400001928E-02 0.  1.
</event>
<event>
 5   0  0.6601906E-05  0.1715970E+04  0.7818609E-02  0.8752308E-01
        1   -1    0    0  501    0  0.00000000000E+00  0.00000000000E+00  0.13321960673E+04  0.13321960673E+04  0.50400001928E-02 0.  1.
       -1   -1    0    0    0  501  0.00000000000E+00  0.00000000000E+00 -0.55257493819E+03  0.55257493821E+03  0.50400001928E-02 0. -1.
    10030    2    1    2    0    0  0.00000000000E+00  0.00000000000E+00  0.77962112913E+03  0.18847710055E+04  0.17159698827E+04 0.  0.
        1    1    3    3  502    0  0.66827831300E+03 -0.39594411830E+03 -0.10410317246E+02  0.77683719220E+03  0.50400001928E-02 0.  1.
       -1    1    3    3    0  502 -0.66827831300E+03  0.39594411830E+03  0.79003144638E+03  0.11079338133E+04  0.50400001928E-02 0. -1.
</event>
<event>
 5   0  0.1269175E-04  0.1699160E+04  0.7818609E-02  0.8761843E-01
       -2   -1    0    0    0  501  0.00000000000E+00  0.00000000000E+00  0.49564776102E+03  0.49564776102E+03  0.25500000920E-02 0. -1.
        2   -1    0    0  501    0  0.00000000000E+00  0.00000000000E+00 -0.14562488473E+04  0.14562488473E+04  0.25500000920E-02 0.  1.
    10030    2    1    2    0    0  0.00000000000E+00  0.00000000000E+00 -0.96060108625E+03  0.19518966083E+04  0.16991603581E+04 0.  0.
        2    1    3    3  502    0  0.21346830270E+03  0.14179718187E+02  0.46419770005E+03  0.51112550846E+03  0.25500000920E-02 0. -1.
       -2    1    3    3    0  502 -0.21346830270E+03 -0.14179718187E+02 -0.14247987863E+04  0.14407710998E+04  0.25500000920E-02 0.  1.
</event>
<event>
 5   0  0.6834837E-05  0.1702083E+04  0.7818609E-02  0.8760177E-01
       -1   -1    0    0    0  501  0.00000000000E+00  0.00000000000E+00  0.69310223226E+03  0.69310223228E+03  0.50400001928E-02 0.  1.
        1   -1    0    0  501    0  0.00000000000E+00  0.00000000000E+00 -0.10449708571E+04  0.10449708571E+04  0.50400001928E-02 0. -1.
    10030    2    1    2    0    0  0.00000000000E+00  0.00000000000E+00 -0.35186862485E+03  0.17380730894E+04  0.17020829988E+04 0.  0.
        5    1    3    3  502    0  0.68657520343E+03 -0.49249385349E+03 -0.72229847419E+02  0.84804183066E+03  0.46999998093E+01 0.  1.
       -5    1    3    3    0  502 -0.68657520343E+03  0.49249385349E+03 -0.27963877743E+03  0.89003125874E+03  0.46999998093E+01 0. -1.
</event>
<event>
 5   0  0.1333546E-04  0.1711217E+04  0.7818609E-02  0.8754992E-01
        2   -1    0    0  501    0  0.00000000000E+00  0.00000000000E+00  0.88563009364E+03  0.88563009364E+03  0.25500000920E-02 0.  1.
       -2   -1    0    0    0  501  0.00000000000E+00  0.00000000000E+00 -0.82660497512E+03  0.82660497513E+03  0.25500000920E-02 0. -1.
    10030    2    1    2    0    0  0.00000000000E+00  0.00000000000E+00  0.59025118518E+02  0.17122350688E+04  0.17112173930E+04 0.  0.
        5    1    3    3  502    0 -0.61760191711E+03 -0.60199886945E+02 -0.55989462883E+03  0.83579916235E+03  0.46999998093E+01 0. -1.
       -5    1    3    3    0  502  0.61760191711E+03  0.60199886945E+02  0.61891974735E+03  0.87643590642E+03  0.46999998093E+01 0.  1.
</event>
<event>
 5   0  0.6564887E-05  0.1721552E+04  0.7818609E-02  0.8749167E-01
        1   -1    0    0  501    0  0.00000000000E+00  0.00000000000E+00  0.11135581532E+04  0.11135581532E+04  0.50400001928E-02 0.  1.
       -1   -1    0    0    0  501  0.00000000000E+00  0.00000000000E+00 -0.66537674625E+03  0.66537674627E+03  0.50400001928E-02 0. -1.
    10030    2    1    2    0    0  0.00000000000E+00  0.00000000000E+00  0.44818140693E+03  0.17789348995E+04  0.17215524398E+04 0.  0.
        4    1    3    3  502    0 -0.57554205647E+03 -0.52279336250E+03 -0.15750479834E+03  0.79332901941E+03  0.12699999809E+01 0. -1.
       -4    1    3    3    0  502  0.57554205647E+03  0.52279336250E+03  0.60568620527E+03  0.98560588005E+03  0.12699999809E+01 0.  1.
</event>
<event>
 5   0  0.1285639E-04  0.1696967E+04  0.7818609E-02  0.8763096E-01
        2   -1    0    0  501    0  0.00000000000E+00  0.00000000000E+00  0.13352526796E+04  0.13352526796E+04  0.25500000920E-02 0. -1.
       -2   -1    0    0    0  501  0.00000000000E+00  0.00000000000E+00 -0.53916692488E+03  0.53916692488E+03  0.25500000920E-02 0.  1.
    10030    2    1    2    0    0  0.00000000000E+00  0.00000000000E+00  0.79608575468E+03  0.18744196044E+04  0.16969668013E+04 0.  0.
        4    1    3    3  502    0 -0.23511250497E+03  0.81316457044E+03  0.46252520342E+03  0.96459612549E+03  0.12699999809E+01 0. -1.
       -4    1    3    3    0  502  0.23511250497E+03 -0.81316457044E+03  0.33356055126E+03  0.90982347896E+03  0.12699999809E+01 0.  1.
</event>
<event>
 5   0  0.6601906E-05  0.1692446E+04  0.7818609E-02  0.8765684E-01
       -1   -1    0    0    0  501  0.00000000000E+00  0.00000000000E+00  0.61883630625E+03  0.61883630627E+03  0.50400001928E-02 0.  1.
        1   -1    0    0  501    0  0.00000000000E+00  0.00000000000E+00 -0.11571615405E+04  0.11571615405E+04  0.50400001928E-02 0. -1.
    10030    2    1    2    0    0  0.00000000000E+00  0.00000000000E+00 -0.53832523421E+03  0.17759978467E+04  0.16924462455E+04 0.  0.
        1    1    3    3  502    0  0.20137628653E+01  0.60950696457E+03  0.34683548860E+03  0.70128286110E+03  0.50400001928E-02 0.  1.
       -1    1    3    3    0  502 -0.20137628653E+01 -0.60950696457E+03 -0.88516072281E+03  0.10747149856E+04  0.50400001928E-02 0. -1.
</event>
<event>
 5   0  0.1255362E-04  0.1706209E+04  0.7818609E-02  0.8757831E-01
        2   -1    0    0  501    0  0.00000000000E+00  0.00000000000E+00  0.80569675686E+03  0.80569675686E+03  0.25500000920E-02 0.  1.
       -2   -1    0    0    0  501  0.00000000000E+00  0.00000000000E+00 -0.90330170823E+03  0.90330170823E+03  0.25500000920E-02 0. -1.
    10030    2    1    2    0    0  0.00000000000E+00  0.00000000000E+00 -0.97604951374E+02  0.17089984651E+04  0.17062089635E+04 0.  0.
        1    1    3    3  502    0  0.74647397035E+03  0.19102363817E+03  0.31795711076E+03  0.83355272362E+03  0.50400001928E-02 0. -1.
       -1    1    3    3    0  502 -0.74647397035E+03 -0.19102363817E+03 -0.41556206213E+03  0.87544574147E+03  0.50400001928E-02 0.  1.
</event>
<event>
 5   0  0.6564887E-05  0.1696896E+04  0.7818609E-02  0.8763137E-01
       -1   -1    0    0    0  501  0.00000000000E+00  0.00000000000E+00  0.40587466192E+03  0.40587466195E+03  0.50400001928E-02 0.  1.
        1   -1    0    0  501    0  0.00000000000E+00  0.00000000000E+00 -0.17736116545E+04  0.17736116545E+04  0.50400001928E-02 0. -1.
    10030    2    1    2    0    0  0.00000000000E+00  0.00000000000E+00 -0.13677369926E+04  0.21794863165E+04  0.16968960259E+04 0.  0.
        4    1    3    3  502    0 -0.72060914892E+03  0.12156376999E+03 -0.13022514029E+03  0.74230418007E+03  0.12699999809E+01 0.  1.
       -4    1    3    3    0  502  0.72060914892E+03 -0.12156376999E+03 -0.12375118523E+04  0.14371821364E+04  0.12699999809E+01 0. -1.
</event>
<event>
 5   0  0.1393870E-04  0.1700434E+04  0.7818609E-02  0.8761117E-01
        2   -1    0    0  501    0  0.00000000000E+00  0.00000000000E+00  0.70873979498E+03  0.70873979499E+03  0.25500000920E-02 0. -1.
       -2   -1    0    0    0  501  0.00000000000E+00  0.00000000000E+00 -0.10199350421E+04  0.10199350421E+04  0.25500000920E-02 0.  1.
    10030    2    1    2    0    0  0.00000000000E+00  0.00000000000E+00 -0.31119524708E+03  0.17286748371E+04  0.17004335360E+04 0.  0.
        3    1    3    3  502    0 -0.16996212171E+03 -0.79279971164E+03  0.10448335853E+03  0.81751776006E+03  0.10100000352E+00 0.  1.
       -3    1    3    3    0  502  0.16996212171E+03  0.79279971164E+03 -0.41567860561E+03  0.91115707700E+03  0.10100000352E+00 0. -1.
</event>
<event>
 5   0  0.6615842E-05  0.1669154E+04  0.7818609E-02  0.8779155E-01
        1   -1    0    0  501    0  0.00000000000E+00  0.00000000000E+00  0.89171582371E+03  0.89171582372E+03  0.50400001928E-02 0. -1.
       -1   -1    0    0    0  501  0.00000000000E+00  0.00000000000E+00 -0.78109961196E+03  0.78109961198E+03  0.50400001928E-02 0.  1.
    10030    2    1    2    0    0  0.00000000000E+00  0.00000000000E+00  0.11061621175E+03  0.16728154357E+04  0.16691541378E+04 0.  0.
        3    1    3    3  502    0 -0.19197690809E+03  0.74087568395E+03  0.38885484940E+03  0.85846375369E+03  0.10100000352E+00 0. -1.
       -3    1    3    3    0  502  0.19197690809E+03 -0.74087568395E+03 -0.27823863765E+03  0.81435168200E+03  0.10100000352E+00 0.  1.
</event>
<event>
 5   0  0.1255362E-04  0.1695283E+04  0.7818609E-02  0.8764059E-01
        2   -1    0    0  501    0  0.00000000000E+00  0.00000000000E+00  0.10027526732E+04  0.10027526733E+04  0.25500000920E-02 0.  1.
       -2   -1    0    0    0  501  0.00000000000E+00  0.00000000000E+00 -0.71652414866E+03  0.71652414866E+03  0.25500000920E-02 0. -1.
    10030    2    1    2    0    0  0.00000000000E+00  0.00000000000E+00  0.28622852459E+03  0.17192768219E+04  0.16952834636E+04 0.  0.
        1    1    3    3  502    0  0.52416105182E+03 -0.63414362471E+03 -0.63766887199E+02  0.82519643778E+03  0.50400001928E-02 0.  1.
       -1    1    3    3    0  502 -0.52416105182E+03  0.63414362471E+03  0.34999541179E+03  0.89408038414E+03  0.50400001928E-02 0. -1.
</event>
<event>
 5   0  0.6564887E-05  0.1693700E+04  0.7818609E-02  0.8764966E-01
       -1   -1    0    0    0  501  0.00000000000E+00  0.00000000000E+00  0.49092025591E+03  0.49092025593E+03  0.50400001928E-02 0.  1.
        1   -1    0    0  501    0  0.00000000000E+00  0.00000000000E+00 -0.14608379268E+04  0.14608379268E+04  0.50400001928E-02 0. -1.
    10030    2    1    2    0    0  0.00000000000E+00  0.00000000000E+00 -0.96991767085E+03  0.19517581827E+04  0.16937000075E+04 0.  0.
        4    1    3    3  502    0 -0.36426413267E+03  0.25116993534E+03 -0.13170408387E+04  0.13893785944E+04  0.12699999809E+01 0. -1.
       -4    1    3    3    0  502  0.36426413267E+03 -0.25116993534E+03  0.34712316788E+03  0.56237958831E+03  0.12699999809E+01 0.  1.
</event>
<event>
 5   0  0.1393870E-04  0.1696435E+04  0.7818609E-02  0.8763400E-01
       -2   -1    0    0    0  501  0.00000000000E+00  0.00000000000E+00  0.10329700766E+04  0.10329700766E+04  0.25500000920E-02 0.  1.
        2   -1    0    0  501    0  0.00000000000E+00  0.00000000000E+00 -0.69650876198E+03  0.69650876199E+03  0.25500000920E-02 0. -1.
    10030    2    1    2    0    0  0.00000000000E+00  0.00000000000E+00  0.33646131457E+03  0.17294788385E+04  0.16964347429E+04 0.  0.
        3    1    3    3  502    0  0.49904841752E+03 -0.50923717272E+03  0.63663737395E+03  0.95586556440E+03  0.10100000352E+00 0.  1.
       -3    1    3    3    0  502 -0.49904841752E+03  0.50923717272E+03 -0.30017605937E+03  0.77361327414E+03  0.10100000352E+00 0. -1.
</event>
<event>
 5   0  0.6564887E-05  0.1701443E+04  0.7818609E-02  0.8760542E-01
       -1   -1    0    0    0  501  0.00000000000E+00  0.00000000000E+00  0.49841326967E+03  0.49841326969E+03  0.50400001928E-02 0.  1.
        1   -1    0    0  501    0  0.00000000000E+00  0.00000000000E+00 -0.14520629480E+04  0.14520629480E+04  0.50400001928E-02 0. -1.
    10030    2    1    2    0    0  0.00000000000E+00  0.00000000000E+00 -0.95364967832E+03  0.19504762177E+04  0.17014434363E+04 0.  0.
        4    1    3    3  502    0 -0.20025047520E+03  0.61786178272E+03 -0.11066715165E+04  0.12831901237E+04  0.12699999809E+01 0. -1.
       -4    1    3    3    0  502  0.20025047520E+03 -0.61786178272E+03  0.15302183813E+03  0.66728609397E+03  0.12699999809E+01 0.  1.
</event>
<event>
 5   0  0.4720875E-05  0.1703390E+04  0.7818609E-02  0.8759433E-01
        3   -1    0    0  501    0  0.00000000000E+00  0.00000000000E+00  0.96995459674E+03  0.96995460200E+03  0.10100000352E+00 0.  1.
       -3   -1    0    0    0  501  0.00000000000E+00  0.00000000000E+00 -0.74785406277E+03  0.74785406959E+03  0.10100000352E+00 0. -1.
    10030    2    1    2    0    0  0.00000000000E+00  0.00000000000E+00  0.22210053397E+03  0.17178086716E+04  0.17033901447E+04 0.  0.
        1    1    3    3  502    0  0.60269839372E+03  0.17093173797E+03  0.69292777610E+03  0.93413698982E+03  0.50400001928E-02 0.  1.
       -1    1    3    3    0  502 -0.60269839372E+03 -0.17093173797E+03 -0.47082724213E+03  0.78367168176E+03  0.50400001928E-02 0. -1.
</event>
<event>
 5   0  0.6564887E-05  0.1728748E+04  0.7818609E-02  0.8745136E-01
       -1   -1    0    0    0  501  0.00000000000E+00  0.00000000000E+00  0.38324155401E+03  0.38324155405E+03  0.50400001928E-02 0.  1.
        1   -1    0    0  501    0  0.00000000000E+00  0.00000000000E+00 -0.19495345945E+04  0.19495345945E+04  0.50400001928E-02 0. -1.
    10030    2    1    2    0    0  0.00000000000E+00  0.00000000000E+00 -0.15662930404E+04  0.23327761485E+04  0.17287482959E+04 0.  0.
        4    1    3    3  502    0 -0.72898068318E+03 -0.44555978989E+03 -0.96014304986E+03  0.12852286380E+04  0.12699999809E+01 0. -1.
       -4    1    3    3    0  502  0.72898068318E+03  0.44555978989E+03 -0.60614999058E+03  0.10475475105E+04  0.12699999809E+01 0.  1.
</event>
<event>
 5   0  0.6834837E-05  0.1712927E+04  0.7818609E-02  0.8754026E-01
       -1   -1    0    0    0  501  0.00000000000E+00  0.00000000000E+00  0.91685348273E+03  0.91685348275E+03  0.50400001928E-02 0.  1.
        1   -1    0    0  501    0  0.00000000000E+00  0.00000000000E+00 -0.80005099322E+03  0.80005099324E+03  0.50400001928E-02 0. -1.
    10030    2    1    2    0    0  0.00000000000E+00  0.00000000000E+00  0.11680248951E+03  0.17169044760E+04  0.17129267813E+04 0.  0.
        5    1    3    3  502    0 -0.75968067570E+02  0.57128391943E+03 -0.57660839885E+03  0.81525198528E+03  0.46999998093E+01 0. -1.
       -5    1    3    3    0  502  0.75968067570E+02 -0.57128391943E+03  0.69341088836E+03  0.90165249070E+03  0.46999998093E+01 0.  1.
</event>
<event>
 5   0  0.1269175E-04  0.1699141E+04  0.7818609E-02  0.8761854E-01
       -2   -1    0    0    0  501  0.00000000000E+00  0.00000000000E+00  0.64342807253E+03  0.64342807254E+03  0.25500000920E-02 0. -1.
        2   -1    0    0  501    0  0.00000000000E+00  0.00000000000E+00 -0.11217577417E+04  0.11217577417E+04  0.25500000920E-02 0.  1.
    10030    2    1    2    0    0  0.00000000000E+00  0.00000000000E+00 -0.47832966918E+03  0.17651858142E+04  0.16991414557E+04 0.  0.
        2    1    3    3  502    0 -0.59352542600E+03  0.43212165180E+03  0.20496710259E+03  0.76224213109E+03  0.25500000920E-02 0. -1.
       -2    1    3    3    0  502  0.59352542600E+03 -0.43212165180E+03 -0.68329677177E+03  0.10029436832E+04  0.25500000920E-02 0.  1.
</event>
<event>
 5   0  0.1285639E-04  0.1690278E+04  0.7818609E-02  0.8766929E-01
        2   -1    0    0  501    0  0.00000000000E+00  0.00000000000E+00  0.12994774538E+04  0.12994774538E+04  0.25500000920E-02 0.  1.
       -2   -1    0    0    0  501  0.00000000000E+00  0.00000000000E+00 -0.54965143945E+03  0.54965143946E+03  0.25500000920E-02 0. -1.
    10030    2    1    2    0    0  0.00000000000E+00  0.00000000000E+00  0.74982601434E+03  0.18491288933E+04  0.16902776731E+04 0.  0.
        4    1    3    3  502    0  0.81634585200E+03  0.16077587234E+03  0.21269165864E+03  0.85878331712E+03  0.12699999809E+01 0. -1.
       -4    1    3    3    0  502 -0.81634585200E+03 -0.16077587234E+03  0.53713435569E+03  0.99034557613E+03  0.12699999809E+01 0.  1.
</event>
<event>
 5   0  0.1333546E-04  0.1692580E+04  0.7818609E-02  0.8765607E-01
       -2   -1    0    0    0  501  0.00000000000E+00  0.00000000000E+00  0.57514612054E+03  0.57514612055E+03  0.25500000920E-02 0.  1.
        2   -1    0    0  501    0  0.00000000000E+00  0.00000000000E+00 -0.12452607862E+04  0.12452607862E+04  0.25500000920E-02 0. -1.
    10030    2    1    2    0    0  0.00000000000E+00  0.00000000000E+00 -0.67011466566E+03  0.18204069068E+04  0.16925801727E+04 0.  0.
        5    1    3    3  502    0  0.49229188718E+03 -0.54535056272E+03 -0.78681014649E+03  0.10764993428E+04  0.46999998093E+01 0. -1.
       -5    1    3    3    0  502 -0.49229188718E+03  0.54535056272E+03  0.11669548083E+03  0.74390756394E+03  0.46999998093E+01 0.  1.
</event>
<event>
 5   0  0.4720875E-05  0.1699238E+04  0.7818609E-02  0.8761799E-01
        4   -1    0    0  501    0  0.00000000000E+00  0.00000000000E+00  0.97672744657E+03  0.97672827224E+03  0.12699999809E+01 0. -1.
       -4   -1    0    0    0  501  0.00000000000E+00  0.00000000000E+00 -0.73905065469E+03  0.73905174588E+03  0.12699999809E+01 0.  1.
    10030    2    1    2    0    0  0.00000000000E+00  0.00000000000E+00  0.23767679188E+03  0.17157800181E+04  0.16992383038E+04 0.  0.
        4    1    3    3  502    0  0.25315412934E+03  0.73253392465E+03  0.47030461618E+03  0.90657653227E+03  0.12699999809E+01 0. -1.
       -4    1    3    3    0  502 -0.25315412934E+03 -0.73253392465E+03 -0.23262782430E+03  0.80920348585E+03  0.12699999809E+01 0.  1.
</event>
<event>
 5   0  0.6564887E-05  0.1700628E+04  0.7818609E-02  0.8761006E-01
        1   -1    0    0  501    0  0.00000000000E+00  0.00000000000E+00  0.10801910618E+04  0.10801910618E+04  0.50400001928E-02 0. -1.
       -1   -1    0    0    0  501  0.00000000000E+00  0.00000000000E+00 -0.66935776598E+03  0.66935776600E+03  0.50400001928E-02 0.  1.
    10030    2    1    2    0    0  0.00000000000E+00  0.00000000000E+00  0.41083329581E+03  0.17495488278E+04  0.17006284438E+04 0.  0.
        4    1    3    3  502    0 -0.57532788135E+03  0.34916814761E+03  0.74009013112E+03  0.10003277370E+04  0.12699999809E+01 0. -1.
       -4    1    3    3    0  502  0.57532788135E+03 -0.34916814761E+03 -0.32925683531E+03  0.74922109078E+03  0.12699999809E+01 0.  1.
</event>
<event>
 5   0  0.6601906E-05  0.1701845E+04  0.7818609E-02  0.8760313E-01
       -1   -1    0    0    0  501  0.00000000000E+00  0.00000000000E+00  0.44095588246E+03  0.44095588249E+03  0.50400001928E-02 0.  1.
        1   -1    0    0  501    0  0.00000000000E+00  0.00000000000E+00 -0.16420437348E+04  0.16420437348E+04  0.50400001928E-02 0. -1.
    10030    2    1    2    0    0  0.00000000000E+00  0.00000000000E+00 -0.12010878523E+04  0.20829996173E+04  0.17018446981E+04 0.  0.
        1    1    3    3  502    0  0.13333203127E+03  0.35255625796E+03 -0.15342906196E+04  0.15799117226E+04  0.50400001928E-02 0. -1.
       -1    1    3    3    0  502 -0.13333203127E+03 -0.35255625796E+03  0.33320276733E+03  0.50308789468E+03  0.50400001928E-02 0.  1.
</event>
<event>
 5   0  0.1393870E-04  0.1700128E+04  0.7818609E-02  0.8761291E-01
       -2   -1    0    0    0  501  0.00000000000E+00  0.00000000000E+00  0.61447139573E+03  0.61447139574E+03  0.25500000920E-02 0. -1.
        2   -1    0    0  501    0  0.00000000000E+00  0.00000000000E+00 -0.11759846520E+04  0.11759846521E+04  0.25500000920E-02 0.  1.
    10030    2    1    2    0    0  0.00000000000E+00  0.00000000000E+00 -0.56151325631E+03  0.17904560478E+04  0.17001281487E+04 0.  0.
        3    1    3    3  502    0 -0.12807500669E+03  0.77270162344E+03  0.67155710320E+02  0.78611761578E+03  0.10100000352E+00 0. -1.
       -3    1    3    3    0  502  0.12807500669E+03 -0.77270162344E+03 -0.62866896664E+03  0.10043384320E+04  0.10100000352E+00 0.  1.
</event>
<event>
 5   0  0.1255362E-04  0.1720982E+04  0.7818609E-02  0.8749487E-01
       -2   -1    0    0    0  501  0.00000000000E+00  0.00000000000E+00  0.26610575542E+04  0.26610575542E+04  0.25500000920E-02 0.  1.
        2   -1    0    0  501    0  0.00000000000E+00  0.00000000000E+00 -0.27825206768E+03  0.27825206769E+03  0.25500000920E-02 0. -1.
    10030    2    1    2    0    0  0.00000000000E+00  0.00000000000E+00  0.23828054865E+04  0.29393096219E+04  0.17209820065E+04 0.  0.
        1    1    3    3  502    0 -0.21493220648E+01  0.80514178597E+03  0.17099680978E+04  0.18900393675E+04  0.50400001928E-02 0.  1.
       -1    1    3    3    0  502  0.21493220648E+01 -0.80514178597E+03  0.67283738873E+03  0.10492702544E+04  0.50400001928E-02 0. -1.
</event>
<event>
 5   0  0.1333546E-04  0.1701950E+04  0.7818609E-02  0.8760253E-01
        2   -1    0    0  501    0  0.00000000000E+00  0.00000000000E+00  0.15895967290E+04  0.15895967290E+04  0.25500000920E-02 0. -1.
       -2   -1    0    0    0  501  0.00000000000E+00  0.00000000000E+00 -0.45556104415E+03  0.45556104416E+03  0.25500000920E-02 0.  1.
    10030    2    1    2    0    0  0.00000000000E+00  0.00000000000E+00  0.11340356849E+04  0.20451577732E+04  0.17019498767E+04 0.  0.
        5    1    3    3  502    0  0.15087399538E+03  0.23988117039E+02  0.15729679375E+04  0.15803760991E+04  0.46999998093E+01 0. -1.
       -5    1    3    3    0  502 -0.15087399538E+03 -0.23988117039E+02 -0.43893225258E+03  0.46478167412E+03  0.46999998093E+01 0.  1.
</event>
<event>
 5   0  0.6615842E-05  0.1701785E+04  0.7818609E-02  0.8760347E-01
        1   -1    0    0  501    0  0.00000000000E+00  0.00000000000E+00  0.61770133849E+03  0.61770133851E+03  0.50400001928E-02 0. -1.
       -1   -1    0    0    0  501  0.00000000000E+00  0.00000000000E+00 -0.11721171873E+04  0.11721171873E+04  0.50400001928E-02 0.  1.
    10030    2    1    2    0    0  0.00000000000E+00  0.00000000000E+00 -0.55441584881E+03  0.17898185258E+04  0.17017853631E+04 0.  0.
        3    1    3    3  502    0 -0.22845265198E+03 -0.17618375450E+03 -0.11191090042E+04  0.11556973233E+04  0.10100000352E+00 0.  1.
       -3    1    3    3    0  502  0.22845265198E+03  0.17618375450E+03  0.56469315540E+03  0.63412120254E+03  0.10100000352E+00 0. -1.
</event>
<event>
 5   0  0.1269175E-04  0.1701199E+04  0.7818609E-02  0.8760681E-01
        2   -1    0    0  501    0  0.00000000000E+00  0.00000000000E+00  0.25100058740E+04  0.25100058740E+04  0.25500000920E-02 0.  1.
       -2   -1    0    0    0  501  0.00000000000E+00  0.00000000000E+00 -0.28825403257E+03  0.28825403258E+03  0.25500000920E-02 0. -1.
    10030    2    1    2    0    0  0.00000000000E+00  0.00000000000E+00  0.22217518414E+04  0.27982599066E+04  0.17011987714E+04 0.  0.
        2    1    3    3  502    0 -0.29361447253E+03  0.49793569226E+03  0.21372700964E+04  0.22140625278E+04  0.25500000920E-02 0.  1.
       -2    1    3    3    0  502  0.29361447253E+03 -0.49793569226E+03  0.84481745028E+02  0.58419737877E+03  0.25500000920E-02 0. -1.
</event>
<event>
 5   0  0.6601906E-05  0.1697204E+04  0.7818609E-02  0.8762961E-01
       -1   -1    0    0    0  501  0.00000000000E+00  0.00000000000E+00  0.12395451059E+04  0.12395451059E+04  0.50400001928E-02 0. -1.
        1   -1    0    0  501    0  0.00000000000E+00  0.00000000000E+00 -0.58095904293E+03  0.58095904295E+03  0.50400001928E-02 0.  1.
    10030    2    1    2    0    0  0.00000000000E+00  0.00000000000E+00  0.65858606300E+03  0.18205041489E+04  0.16972035098E+04 0.  0.
        1    1    3    3  502    0  0.69179182105E+03 -0.27157366118E+03  0.76868239428E+03  0.10692056867E+04  0.50400001928E-02 0. -1.
       -1    1    3    3    0  502 -0.69179182105E+03  0.27157366118E+03 -0.11009633128E+03  0.75129846220E+03  0.50400001928E-02 0.  1.
</event>
<event>
 5   0  0.1393870E-04  0.1702079E+04  0.7818609E-02  0.8760180E-01
        2   -1    0    0  501    0  0.00000000000E+00  0.00000000000E+00  0.10681891287E+04  0.10681891287E+04  0.25500000920E-02 0.  1.
       -2   -1    0    0    0  501  0.00000000000E+00  0.00000000000E+00 -0.67803355296E+03  0.67803355296E+03  0.25500000920E-02 0. -1.
    10030    2    1    2    0    0  0.00000000000E+00  0.00000000000E+00  0.39015557574E+03  0.17462226817E+04  0.17020788115E+04 0.  0.
        3    1    3    3  502    0 -0.14259728179E+03 -0.60934434734E+03  0.78677970916E+03  0.10053142988E+04  0.10100000352E+00 0.  1.
       -3    1    3    3    0  502  0.14259728179E+03  0.60934434734E+03 -0.39662413341E+03  0.74090838288E+03  0.10100000352E+00 0. -1.
</event>
<event>
 5   0  0.1269175E-04  0.1729437E+04  0.7818609E-02  0.8744751E-01
        2   -1    0    0  501    0  0.00000000000E+00  0.00000000000E+00  0.88745028093E+03  0.88745028094E+03  0.25500000920E-02 0. -1.
       -2   -1    0    0    0  501  0.00000000000E+00  0.00000000000E+00 -0.84256864888E+03  0.84256864889E+03  0.25500000920E-02 0.  1.
    10030    2    1    2    0    0  0.00000000000E+00  0.00000000000E+00  0.44881632049E+02  0.17300189298E+04  0.17294366530E+04 0.  0.
        2    1    3    3  502    0 -0.67114612729E+03  0.31831731645E+02 -0.52206533268E+03  0.85088342028E+03  0.25500000920E-02 0.  1.
       -2    1    3    3    0  502  0.67114612729E+03 -0.31831731645E+02  0.56694696473E+03  0.87913550954E+03  0.25500000920E-02 0. -1.
</event>
<event>
 5   0  0.6601906E-05  0.1698347E+04  0.7818609E-02  0.8762308E-01
        1   -1    0    0  501    0  0.00000000000E+00  0.00000000000E+00  0.71032681940E+03  0.71032681942E+03  0.50400001928E-02 0.  1.
       -1   -1    0    0    0  501  0.00000000000E+00  0.00000000000E+00 -0.10151598012E+04  0.10151598012E+04  0.50400001928E-02 0. -1.
    10030    2    1    2    0    0  0.00000000000E+00  0.00000000000E+00 -0.30483298178E+03  0.17254866206E+04  0.16983465286E+04 0.  0.
        1    1    3    3  502    0  0.65715514345E+02  0.31586105553E+03 -0.95046788551E+03  0.10037310081E+04  0.50400001928E-02 0. -1.
       -1    1    3    3    0  502 -0.65715514345E+02 -0.31586105553E+03  0.64563490373E+03  0.72175561250E+03  0.50400001928E-02 0.  1.
</event>
<event>
 5   0  0.1333546E-04  0.1706382E+04  0.7818609E-02  0.8757733E-01
        2   -1    0    0  501    0  0.00000000000E+00  0.00000000000E+00  0.68959351698E+03  0.68959351698E+03  0.25500000920E-02 0. -1.
       -2   -1    0    0    0  501  0.00000000000E+00  0.00000000000E+00 -0.10556000238E+04  0.10556000238E+04  0.25500000920E-02 0.  1.
    10030    2    1    2    0    0  0.00000000000E+00  0.00000000000E+00 -0.36600650684E+03  0.17451935408E+04  0.17063820592E+04 0.  0.
        5    1    3    3  502    0 -0.24141346403E+03  0.45980608027E+01 -0.10199131206E+04  0.10481156741E+04  0.46999998093E+01 0.  1.
       -5    1    3    3    0  502  0.24141346403E+03 -0.45980608027E+01  0.65390661373E+03  0.69707786671E+03  0.46999998093E+01 0. -1.
</event>
<event>
 5   0  0.1269175E-04  0.1696331E+04  0.7818609E-02  0.8763460E-01
        2   -1    0    0  501    0  0.00000000000E+00  0.00000000000E+00  0.16782566533E+04  0.16782566533E+04  0.25500000920E-02 0. -1.
       -2   -1    0    0    0  501  0.00000000000E+00  0.00000000000E+00 -0.42865014598E+03  0.42865014599E+03  0.25500000920E-02 0.  1.
    10030    2    1    2    0    0  0.00000000000E+00  0.00000000000E+00  0.12496065073E+04  0.21069067993E+04  0.16963312878E+04 0.  0.
        2    1    3    3  502    0 -0.52499394566E+03  0.29039949176E+03  0.13694400671E+04  0.14950975236E+04  0.25500000920E-02 0. -1.
       -2    1    3    3    0  502  0.52499394566E+03 -0.29039949176E+03 -0.11983355973E+03  0.61180927571E+03  0.25500000920E-02 0.  1.
</event>
<event>
 5   0  0.1333546E-04  0.1700435E+04  0.7818609E-02  0.8761116E-01
       -2   -1    0    0    0  501  0.00000000000E+00  0.00000000000E+00  0.12896222055E+04  0.12896222055E+04  0.25500000920E-02 0.  1.
        2   -1    0    0  501    0  0.00000000000E+00  0.00000000000E+00 -0.56052857705E+03  0.56052857706E+03  0.25500000920E-02 0. -1.
    10030    2    1    2    0    0  0.00000000000E+00  0.00000000000E+00  0.72909362842E+03  0.18501507825E+04  0.17004353558E+04 0.  0.
        5    1    3    3  502    0  0.25132233290E+03  0.80474244447E+03  0.24498705178E+03  0.87796017135E+03  0.46999998093E+01 0.  1.
       -5    1    3    3    0  502 -0.25132233290E+03 -0.80474244447E+03  0.48410657664E+03  0.97219061119E+03  0.46999998093E+01 0. -1.
</event>
<event>
 5   0  0.6601906E-05  0.1701512E+04  0.7818609E-02  0.8760503E-01
       -1   -1    0    0    0  501  0.00000000000E+00  0.00000000000E+00  0.56356238705E+03  0.56356238707E+03  0.50400001928E-02 0. -1.
        1   -1    0    0  501    0  0.00000000000E+00  0.00000000000E+00 -0.12843043103E+04  0.12843043103E+04  0.50400001928E-02 0.  1.
    10030    2    1    2    0    0  0.00000000000E+00  0.00000000000E+00 -0.72074192326E+03  0.18478666974E+04  0.17015118017E+04 0.  0.
        1    1    3    3  502    0  0.14228021563E+00 -0.45292792075E+02  0.56225208553E+03  0.56407345707E+03  0.50400001928E-02 0. -1.
       -1    1    3    3    0  502 -0.14228021563E+00  0.45292792075E+02 -0.12829940088E+04  0.12837932403E+04  0.50400001928E-02 0.  1.
</event>
<event>
 5   0  0.1285639E-04  0.1700360E+04  0.7818609E-02  0.8761159E-01
       -2   -1    0    0    0  501  0.00000000000E+00  0.00000000000E+00  0.52142746259E+03  0.52142746260E+03  0.25500000920E-02 0. -1.
        2   -1    0    0  501    0  0.00000000000E+00  0.00000000000E+00 -0.13862054968E+04  0.13862054968E+04  0.25500000920E-02 0.  1.
    10030    2    1    2    0    0  0.00000000000E+00  0.00000000000E+00 -0.86477803424E+03  0.19076329594E+04  0.17003595089E+04 0.  0.
        4    1    3    3  502    0  0.10242575314E+03 -0.35695329112E+03 -0.12904020345E+04  0.13427753761E+04  0.12699999809E+01 0.  1.
       -4    1    3    3    0  502 -0.10242575314E+03  0.35695329112E+03  0.42562400030E+03  0.56485758336E+03  0.12699999809E+01 0. -1.
</event>
<event>
 5   0  0.1393870E-04  0.1703273E+04  0.7818609E-02  0.8759500E-01
        2   -1    0    0  501    0  0.00000000000E+00  0.00000000000E+00  0.27320863415E+04  0.27320863415E+04  0.25500000920E-02 0. -1.
       -2   -1    0    0    0  501  0.00000000000E+00  0.00000000000E+00 -0.26546922901E+03  0.26546922903E+03  0.25500000920E-02 0.  1.
    10030    2    1    2    0    0  0.00000000000E+00  0.00000000000E+00  0.24666171125E+04  0.29975555705E+04  0.17032731486E+04 0.  0.
        3    1    3    3  502    0  0.44608194957E+03  0.42482153003E+03  0.22682350558E+04  0.23503941619E+04  0.10100000352E+00 0. -1.
       -3    1    3    3    0  502 -0.44608194957E+03 -0.42482153003E+03  0.19838205670E+03  0.64716140856E+03  0.10100000352E+00 0.  1.
</event>
<event>
 5   0  0.4720875E-05  0.1705880E+04  0.7818609E-02  0.8758018E-01
        4   -1    0    0  501    0  0.00000000000E+00  0.00000000000E+00  0.13939666097E+04  0.13939671883E+04  0.12699999809E+01 0.  1.
       -4   -1    0    0    0  501  0.00000000000E+00  0.00000000000E+00 -0.52189554010E+03  0.52189708533E+03  0.12699999809E+01 0. -1.
    10030    2    1    2    0    0  0.00000000000E+00  0.00000000000E+00  0.87207106963E+03  0.19158642736E+04  0.17058804074E+04 0.  0.
        2    1    3    3  502    0 -0.37561192275E+03  0.42614045258E+03 -0.27854451488E+03  0.63266661728E+03  0.25500000920E-02 0. -1.
       -2    1    3    3    0  502  0.37561192275E+03 -0.42614045258E+03  0.11506155845E+04  0.12831976563E+04  0.25500000920E-02 0.  1.
</event>
<event>
 5   0  0.1393870E-04  0.1702304E+04  0.7818609E-02  0.8760051E-01
       -2   -1    0    0    0  501  0.00000000000E+00  0.00000000000E+00  0.43494650257E+03  0.43494650257E+03  0.25500000920E-02 0. -1.
        2   -1    0    0  501    0  0.00000000000E+00  0.00000000000E+00 -0.16656291753E+04  0.16656291753E+04  0.25500000920E-02 0.  1.
    10030    2    1    2    0    0  0.00000000000E+00  0.00000000000E+00 -0.12306826727E+04  0.21005756779E+04  0.17023038323E+04 0.  0.
        3    1    3    3  502    0 -0.24882811868E+03 -0.18528795857E+03  0.36269400279E+03  0.47727770752E+03  0.10100000352E+00 0. -1.
       -3    1    3    3    0  502  0.24882811868E+03  0.18528795857E+03 -0.15933766755E+04  0.16232979703E+04  0.10100000352E+00 0.  1.
</event>
<event>
 5   0  0.6615842E-05  0.1686996E+04  0.7818609E-02  0.8768816E-01
       -1   -1    0    0    0  501  0.00000000000E+00  0.00000000000E+00  0.52292324416E+03  0.52292324418E+03  0.50400001928E-02 0. -1.
        1   -1    0    0  501    0  0.00000000000E+00  0.00000000000E+00 -0.13605998685E+04  0.13605998685E+04  0.50400001928E-02 0.  1.
    10030    2    1    2    0    0  0.00000000000E+00  0.00000000000E+00 -0.83767662438E+03  0.18835231127E+04  0.16869964995E+04 0.  0.
        3    1    3    3  502    0  0.31717907802E+03 -0.64854958251E+03  0.68176435293E+02  0.72516699114E+03  0.10100000352E+00 0. -1.
       -3    1    3    3    0  502 -0.31717907802E+03  0.64854958251E+03 -0.90585305967E+03  0.11583561216E+04  0.10100000352E+00 0.  1.
</event>
<event>
 5   0  0.6615842E-05  0.1706274E+04  0.7818609E-02  0.8757794E-01
       -1   -1    0    0    0  501  0.00000000000E+00  0.00000000000E+00  0.83321601783E+03  0.83321601785E+03  0.50400001928E-02 0. -1.
        1   -1    0    0  501    0  0.00000000000E+00  0.00000000000E+00 -0.87353431543E+03  0.87353431545E+03  0.50400001928E-02 0.  1.
    10030    2    1    2    0    0  0.00000000000E+00  0.00000000000E+00 -0.40318297599E+02  0.17067503333E+04  0.17062740504E+04 0.  0.
        3    1    3    3  502    0 -0.29840146602E+03  0.38312563097E+03  0.68147380780E+03  0.83680060047E+03  0.10100000352E+00 0. -1.
       -3    1    3    3    0  502  0.29840146602E+03 -0.38312563097E+03 -0.72179210540E+03  0.86994973283E+03  0.10100000352E+00 0.  1.
</event>
<event>
 5   0  0.1285639E-04  0.1702816E+04  0.7818609E-02  0.8759760E-01
       -2   -1    0    0    0  501  0.00000000000E+00  0.00000000000E+00  0.72457606369E+03  0.72457606370E+03  0.25500000920E-02 0.  1.
        2   -1    0    0  501    0  0.00000000000E+00  0.00000000000E+00 -0.10004405369E+04  0.10004405369E+04  0.25500000920E-02 0. -1.
    10030    2    1    2    0    0  0.00000000000E+00  0.00000000000E+00 -0.27586447318E+03  0.17250166006E+04  0.17028156285E+04 0.  0.
        4    1    3    3  502    0  0.45416258662E+03  0.60651917556E+02 -0.86488928032E+03  0.97876319419E+03  0.12699999809E+01 0. -1.
       -4    1    3    3    0  502 -0.45416258662E+03 -0.60651917556E+02  0.58902480715E+03  0.74625340637E+03  0.12699999809E+01 0.  1.
</event>
<event>
 5   0  0.6834837E-05  0.1671716E+04  0.7818609E-02  0.8777662E-01
       -1   -1    0    0    0  501  0.00000000000E+00  0.00000000000E+00  0.85904966374E+03  0.85904966376E+03  0.50400001928E-02 0. -1.
        1   -1    0    0  501    0  0.00000000000E+00  0.00000000000E+00 -0.81329217335E+03  0.81329217336E+03  0.50400001928E-02 0.  1.
    10030    2    1    2    0    0  0.00000000000E+00  0.00000000000E+00  0.45757490397E+02  0.16723418371E+04  0.16717157271E+04 0.  0.
        5    1    3    3  502    0  0.55345298034E+03 -0.48527570535E+03 -0.37329175674E+03  0.82533116825E+03  0.46999998093E+01 0.  1.
       -5    1    3    3    0  502 -0.55345298034E+03  0.48527570535E+03  0.41904924714E+03  0.84701066886E+03  0.46999998093E+01 0. -1.
</event>
<event>
 5   0  0.6615842E-05  0.1700356E+04  0.7818609E-02  0.8761161E-01
        1   -1    0    0  501    0  0.00000000000E+00  0.00000000000E+00  0.15051766697E+04  0.15051766697E+04  0.50400001928E-02 0. -1.
       -1   -1    0    0    0  501  0.00000000000E+00  0.00000000000E+00 -0.48021140223E+03  0.48021140225E+03  0.50400001928E-02 0.  1.
    10030    2    1    2    0    0  0.00000000000E+00  0.00000000000E+00  0.10249652674E+04  0.19853880719E+04  0.17003564322E+04 0.  0.
        3    1    3    3  502    0  0.24751154328E+02  0.76321795336E+03  0.94888401487E+03  0.12179881559E+04  0.10100000352E+00 0. -1.
       -3    1    3    3    0  502 -0.24751154328E+02 -0.76321795336E+03  0.76081252571E+02  0.76739991605E+03  0.10100000352E+00 0.  1.
</event>
<event>
 5   0  0.4720875E-05  0.1704270E+04  0.7818609E-02  0.8758933E-01
        3   -1    0    0  501    0  0.00000000000E+00  0.00000000000E+00  0.44114581676E+03  0.44114582832E+03  0.10100000352E+00 0. -1.
       -3   -1    0    0    0  501  0.00000000000E+00  0.00000000000E+00 -0.16460173280E+04  0.16460173311E+04  0.10100000352E+00 0.  1.
    10030    2    1    2    0    0  0.00000000000E+00  0.00000000000E+00 -0.12048715113E+04  0.20871631595E+04  0.17042695490E+04 0.  0.
        1    1    3    3  502    0  0.29007307783E+03  0.40075681324E+03  0.24726207635E+03  0.55307047315E+03  0.50400001928E-02 0. -1.
       -1    1    3    3    0  502 -0.29007307783E+03 -0.40075681324E+03 -0.14521335876E+04  0.15340926863E+04  0.50400001928E-02 0.  1.
</event>
<event>
 5   0  0.6615842E-05  0.1674035E+04  0.7818609E-02  0.8776313E-01
       -1   -1    0    0    0  501  0.00000000000E+00  0.00000000000E+00  0.67327186731E+03  0.67327186733E+03  0.50400001928E-02 0.  1.
        1   -1    0    0  501    0  0.00000000000E+00  0.00000000000E+00 -0.10405870185E+04  0.10405870185E+04  0.50400001928E-02 0. -1.
    10030    2    1    2    0    0  0.00000000000E+00  0.00000000000E+00 -0.36731515117E+03  0.17138588858E+04  0.16740346054E+04 0.  0.
        3    1    3    3  502    0 -0.18105494957E+03 -0.54715286211E+03  0.43777568021E+03  0.72374353584E+03  0.10100000352E+00 0.  1.
       -3    1    3    3    0  502  0.18105494957E+03  0.54715286211E+03 -0.80509083138E+03  0.99011534997E+03  0.10100000352E+00 0. -1.
</event>
<event>
 5   0  0.1255362E-04  0.1687369E+04  0.7818609E-02  0.8768601E-01
       -2   -1    0    0    0  501  0.00000000000E+00  0.00000000000E+00  0.59947828507E+03  0.59947828508E+03  0.25500000920E-02 0. -1.
        2   -1    0    0  501    0  0.00000000000E+00  0.00000000000E+00 -0.11873716870E+04  0.11873716870E+04  0.25500000920E-02 0.  1.
    10030    2    1    2    0    0  0.00000000000E+00  0.00000000000E+00 -0.58789340189E+03  0.17868499720E+04  0.16873690084E+04 0.  0.
        1    1    3    3  502    0 -0.44552467383E+03 -0.56105734893E+03  0.17788451775E+03  0.73818729701E+03  0.50400001928E-02 0. -1.
       -1    1    3    3    0  502  0.44552467383E+03  0.56105734893E+03 -0.76577791963E+03  0.10486626750E+04  0.50400001928E-02 0.  1.
</event>
<event>
 5   0  0.6539134E-05  0.1698021E+04  0.7818609E-02  0.8762494E-01
       -1   -1    0    0    0  501  0.00000000000E+00  0.00000000000E+00  0.50527772139E+03  0.50527772141E+03  0.50400001928E-02 0.  1.
        1   -1    0    0  501    0  0.00000000000E+00  0.00000000000E+00 -0.14265799212E+04  0.14265799212E+04  0.50400001928E-02 0. -1.
    10030    2    1    2    0    0  0.00000000000E+00  0.00000000000E+00 -0.92130219977E+03  0.19318576426E+04  0.16980212625E+04 0.  0.
        2    1    3    3  502    0  0.42087332522E+03  0.52733271942E+03  0.12568959438E+03  0.68630315968E+03  0.25500000920E-02 0.  1.
       -2    1    3    3    0  502 -0.42087332522E+03 -0.52733271942E+03 -0.10469917941E+04  0.12455544829E+04  0.25500000920E-02 0. -1.
</event>
<event>
 5   0  0.6615842E-05  0.1699890E+04  0.7818609E-02  0.8761427E-01
       -1   -1    0    0    0  501  0.00000000000E+00  0.00000000000E+00  0.60245003918E+03  0.60245003920E+03  0.50400001928E-02 0. -1.
        1   -1    0    0  501    0  0.00000000000E+00  0.00000000000E+00 -0.11991136755E+04  0.11991136755E+04  0.50400001928E-02 0.  1.
    10030    2    1    2    0    0  0.00000000000E+00  0.00000000000E+00 -0.59666363628E+03  0.18015637147E+04  0.16998895032E+04 0.  0.
        3    1    3    3  502    0 -0.61606937171E+03 -0.19816524914E+03 -0.88228272484E+03  0.10941817735E+04  0.10100000352E+00 0.  1.
       -3    1    3    3    0  502  0.61606937171E+03  0.19816524914E+03  0.28561908856E+03  0.70738194116E+03  0.10100000352E+00 0. -1.
</event>
<event>
 5   0  0.6539134E-05  0.1707101E+04  0.7818609E-02  0.8757325E-01
        1   -1    0    0  501    0  0.00000000000E+00  0.00000000000E+00  0.79107096557E+03  0.79107096559E+03  0.50400001928E-02 0.  1.
       -1   -1    0    0    0  501  0.00000000000E+00  0.00000000000E+00 -0.92096505872E+03  0.92096505873E+03  0.50400001928E-02 0. -1.
    10030    2    1    2    0    0  0.00000000000E+00  0.00000000000E+00 -0.12989409315E+03  0.17120360243E+04  0.17071013072E+04 0.  0.
        2    1    3    3  502    0  0.44109890574E+03  0.72478319153E+03  0.28433866465E+02  0.84893309756E+03  0.25500000920E-02 0. -1.
       -2    1    3    3    0  502 -0.44109890574E+03 -0.72478319153E+03 -0.15832795961E+03  0.86310292675E+03  0.25500000920E-02 0.  1.
</event>
<event>
 5   0  0.6615842E-05  0.1718381E+04  0.7818609E-02  0.8750950E-01
       -1   -1    0    0    0  501  0.00000000000E+00  0.00000000000E+00  0.42447894139E+03  0.42447894142E+03  0.50400001928E-02 0. -1.
        1   -1    0    0  501    0  0.00000000000E+00  0.00000000000E+00 -0.17390921473E+04  0.17390921473E+04  0.50400001928E-02 0.  1.
    10030    2    1    2    0    0  0.00000000000E+00  0.00000000000E+00 -0.13146132059E+04  0.21635710887E+04  0.17183806257E+04 0.  0.
        3    1    3    3  502    0  0.47120339040E+03  0.23521405617E+03  0.19742833154E+03  0.56243776869E+03  0.10100000352E+00 0. -1.
       -3    1    3    3    0  502 -0.47120339040E+03 -0.23521405617E+03 -0.15120415374E+04  0.16011333200E+04  0.10100000352E+00 0.  1.
</event>
<event>
 5   0  0.1333546E-04  0.1696114E+04  0.7818609E-02  0.8763584E-01
       -2   -1    0    0    0  501  0.00000000000E+00  0.00000000000E+00  0.15294059478E+04  0.15294059478E+04  0.25500000920E-02 0. -1.
        2   -1    0    0  501    0  0.00000000000E+00  0.00000000000E+00 -0.47024865022E+03  0.47024865023E+03  0.25500000920E-02 0.  1.
    10030    2    1    2    0    0  0.00000000000E+00  0.00000000000E+00  0.10591572976E+04  0.19996545981E+04  0.16961144804E+04 0.  0.
        5    1    3    3  502    0  0.56206890987E+03  0.62574970497E+03  0.65707476768E+03  0.10673581840E+04  0.46999998093E+01 0.  1.
       -5    1    3    3    0  502 -0.56206890987E+03 -0.62574970497E+03  0.40208252994E+03  0.93229641403E+03  0.46999998093E+01 0. -1.
</event>
<event>
 5   0  0.1255362E-04  0.1701935E+04  0.7818609E-02  0.8760262E-01
        2   -1    0    0  501    0  0.00000000000E+00  0.00000000000E+00  0.21656069550E+04  0.21656069550E+04  0.25500000920E-02 0. -1.
       -2   -1    0    0    0  501  0.00000000000E+00  0.00000000000E+00 -0.33438451555E+03  0.33438451556E+03  0.25500000920E-02 0.  1.
    10030    2    1    2    0    0  0.00000000000E+00  0.00000000000E+00  0.18312224394E+04  0.24999914705E+04  0.17019347021E+04 0.  0.
        1    1    3    3  502    0 -0.72800218911E+03  0.33154593552E+03  0.48928375660E+03  0.93771450303E+03  0.50400001928E-02 0.  1.
       -1    1    3    3    0  502  0.72800218911E+03 -0.33154593552E+03  0.13419386828E+04  0.15622769675E+04  0.50400001928E-02 0. -1.
</event>
<event>
 5   0  0.6601906E-05  0.1699841E+04  0.7818609E-02  0.8761455E-01
        1   -1    0    0  501    0  0.00000000000E+00  0.00000000000E+00  0.83389177110E+03  0.83389177112E+03  0.50400001928E-02 0. -1.
       -1   -1    0    0    0  501  0.00000000000E+00  0.00000000000E+00 -0.86625746618E+03  0.86625746619E+03  0.50400001928E-02 0.  1.
    10030    2    1    2    0    0  0.00000000000E+00  0.00000000000E+00 -0.32365695078E+02  0.17001492373E+04  0.16998411370E+04 0.  0.
        1    1    3    3  502    0 -0.42342259091E+03  0.35031668170E+03  0.63228372817E+03  0.83772977798E+03  0.50400001928E-02 0. -1.
       -1    1    3    3    0  502  0.42342259091E+03 -0.35031668170E+03 -0.66464942325E+03  0.86241945933E+03  0.50400001928E-02 0.  1.
</event>
<event>
 5   0  0.1269175E-04  0.1693214E+04  0.7818609E-02  0.8765244E-01
        2   -1    0    0  501    0  0.00000000000E+00  0.00000000000E+00  0.67521221420E+03  0.67521221420E+03  0.25500000920E-02 0.  1.
       -2   -1    0    0    0  501  0.00000000000E+00  0.00000000000E+00 -0.10615079161E+04  0.10615079161E+04  0.25500000920E-02 0. -1.
    10030    2    1    2    0    0  0.00000000000E+00  0.00000000000E+00 -0.38629570193E+03  0.17367201303E+04  0.16932136433E+04 0.  0.
        2    1    3    3  502    0 -0.84281212184E+03 -0.53226116959E+01 -0.27509120694E+03  0.88658658633E+03  0.25500000920E-02 0. -1.
       -2    1    3    3    0  502  0.84281212184E+03  0.53226116959E+01 -0.11120449499E+03  0.85013354400E+03  0.25500000920E-02 0.  1.
</event>
<event>
 5   0  0.1333546E-04  0.1707151E+04  0.7818609E-02  0.8757297E-01
        2   -1    0    0  501    0  0.00000000000E+00  0.00000000000E+00  0.20166846568E+04  0.20166846568E+04  0.25500000920E-02 0.  1.
       -2   -1    0    0    0  501  0.00000000000E+00  0.00000000000E+00 -0.36128151868E+03  0.36128151869E+03  0.25500000920E-02 0. -1.
    10030    2    1    2    0    0  0.00000000000E+00  0.00000000000E+00  0.16554031381E+04  0.23779661755E+04  0.17071507204E+04 0.  0.
        5    1    3    3  502    0  0.72800783835E+03 -0.15537469248E+03  0.14094657912E+04  0.15939738437E+04  0.46999998093E+01 0.  1.
       -5    1    3    3    0  502 -0.72800783835E+03  0.15537469248E+03  0.24593734694E+03  0.78399233184E+03  0.46999998093E+01 0. -1.
</event>
<event>
 5   0  0.6539134E-05  0.1690583E+04  0.7818609E-02  0.8766754E-01
        1   -1    0    0  501    0  0.00000000000E+00  0.00000000000E+00  0.93217395813E+03  0.93217395815E+03  0.50400001928E-02 0.  1.
       -1   -1    0    0    0  501  0.00000000000E+00  0.00000000000E+00 -0.76650652436E+03  0.76650652437E+03  0.50400001928E-02 0. -1.
    10030    2    1    2    0    0  0.00000000000E+00  0.00000000000E+00  0.16566743378E+03  0.16986804825E+04  0.16905826460E+04 0.  0.
        2    1    3    3  502    0  0.20786559866E+02 -0.58766818871E+02  0.92986140959E+03  0.93194842192E+03  0.25500000920E-02 0.  1.
       -2    1    3    3    0  502 -0.20786559866E+02  0.58766818871E+02 -0.76419397581E+03  0.76673206060E+03  0.25500000920E-02 0. -1.
</event>
<event>
 5   0  0.1269175E-04  0.1614895E+04  0.7818609E-02  0.8811449E-01
        2   -1    0    0  501    0  0.00000000000E+00  0.00000000000E+00  0.93061548880E+03  0.93061548881E+03  0.25500000920E-02 0. -1.
       -2   -1    0    0    0  501  0.00000000000E+00  0.00000000000E+00 -0.70058111595E+03  0.70058111595E+03  0.25500000920E-02 0.  1.
    10030    2    1    2    0    0  0.00000000000E+00  0.00000000000E+00  0.23003437285E+03  0.16311966048E+04  0.16148952135E+04 0.  0.
        2    1    3    3  502    0 -0.20990882441E+03  0.45205340753E+03  0.75669163820E+03  0.90608842457E+03  0.25500000920E-02 0. -1.
       -2    1    3    3    0  502  0.20990882441E+03 -0.45205340753E+03 -0.52665726534E+03  0.72510818018E+03  0.25500000920E-02 0.  1.
</event>
<event>
 5   0  0.1393870E-04  0.1701742E+04  0.7818609E-02  0.8760372E-01
       -2   -1    0    0    0  501  0.00000000000E+00  0.00000000000E+00  0.47229437822E+03  0.47229437823E+03  0.25500000920E-02 0. -1.
        2   -1    0    0  501    0  0.00000000000E+00  0.00000000000E+00 -0.15329020950E+04  0.15329020950E+04  0.25500000920E-02 0.  1.
    10030    2    1    2    0    0  0.00000000000E+00  0.00000000000E+00 -0.10606077168E+04  0.20051964733E+04  0.17017415102E+04 0.  0.
        3    1    3    3  502    0 -0.20604148536E+03 -0.61968919045E+03  0.11240826504E+03  0.66264878684E+03  0.10100000352E+00 0. -1.
       -3    1    3    3    0  502  0.20604148536E+03  0.61968919045E+03 -0.11730159819E+04  0.13425476864E+04  0.10100000352E+00 0.  1.
</event>
<event>
 5   0  0.4720875E-05  0.1689901E+04  0.7818609E-02  0.8767145E-01
       -3   -1    0    0    0  501  0.00000000000E+00  0.00000000000E+00  0.56102448301E+03  0.56102449211E+03  0.10100000352E+00 0. -1.
        3   -1    0    0  501    0  0.00000000000E+00  0.00000000000E+00 -0.12725675889E+04  0.12725675929E+04  0.10100000352E+00 0.  1.
    10030    2    1    2    0    0  0.00000000000E+00  0.00000000000E+00 -0.71154310590E+03  0.18335920850E+04  0.16899012819E+04 0.  0.
        4    1    3    3  502    0  0.26842625503E+03 -0.40600729180E+03 -0.11051845922E+04  0.12076130055E+04  0.12699999809E+01 0.  1.
       -4    1    3    3    0  502 -0.26842625503E+03  0.40600729180E+03  0.39364148627E+03  0.62597907952E+03  0.12699999809E+01 0. -1.
</event>
<event>
 5   0  0.6834837E-05  0.1711007E+04  0.7818609E-02  0.8755111E-01
        1   -1    0    0  501    0  0.00000000000E+00  0.00000000000E+00  0.15609385621E+04  0.15609385621E+04  0.50400001928E-02 0.  1.
       -1   -1    0    0    0  501  0.00000000000E+00  0.00000000000E+00 -0.46887589941E+03  0.46887589944E+03  0.50400001928E-02 0. -1.
    10030    2    1    2    0    0  0.00000000000E+00  0.00000000000E+00  0.10920626627E+04  0.20298144616E+04  0.17110072733E+04 0.  0.
        5    1    3    3  502    0  0.64007457369E+02 -0.48317618590E+03 -0.28804038548E+03  0.56616740888E+03  0.46999998093E+01 0. -1.
       -5    1    3    3    0  502 -0.64007457369E+02  0.48317618590E+03  0.13801030482E+04  0.14636470527E+04  0.46999998093E+01 0.  1.
</event>
<event>
 5   0  0.1255362E-04  0.1700739E+04  0.7818609E-02  0.8760943E-01
       -2   -1    0    0    0  501  0.00000000000E+00  0.00000000000E+00  0.26552288406E+03  0.26552288407E+03  0.25500000920E-02 0.  1.
        2   -1    0    0  501    0  0.00000000000E+00  0.00000000000E+00 -0.27234130498E+04  0.27234130498E+04  0.25500000920E-02 0. -1.
    10030    2    1    2    0    0  0.00000000000E+00  0.00000000000E+00 -0.24578901657E+04  0.29889359339E+04  0.17007392363E+04 0.  0.
        1    1    3    3  502    0  0.76364893927E+03 -0.27357545579E+03 -0.16774359396E+04  0.18632752249E+04  0.50400001928E-02 0. -1.
       -1    1    3    3    0  502 -0.76364893927E+03  0.27357545579E+03 -0.78045422617E+03  0.11256607089E+04  0.50400001928E-02 0.  1.
</event>
<event>
 5   0  0.6564887E-05  0.1697757E+04  0.7818609E-02  0.8762645E-01
       -1   -1    0    0    0  501  0.00000000000E+00  0.00000000000E+00  0.12546112556E+04  0.12546112556E+04  0.50400001928E-02 0. -1.
        1   -1    0    0  501    0  0.00000000000E+00  0.00000000000E+00 -0.57435704202E+03  0.57435704204E+03  0.50400001928E-02 0.  1.
    10030    2    1    2    0    0  0.00000000000E+00  0.00000000000E+00  0.68025421353E+03  0.18289682976E+04  0.16977571200E+04 0.  0.
        4    1    3    3  502    0  0.34020837759E+03  0.24692765036E+03  0.11346043096E+04  0.12099766762E+04  0.12699999809E+01 0. -1.
       -4    1    3    3    0  502 -0.34020837759E+03 -0.24692765036E+03 -0.45435009605E+03  0.61899162141E+03  0.12699999809E+01 0.  1.
</event>
<event>
 5   0  0.6539134E-05  0.1698734E+04  0.7818609E-02  0.8762087E-01
       -1   -1    0    0    0  501  0.00000000000E+00  0.00000000000E+00  0.10445508255E+04  0.10445508256E+04  0.50400001928E-02 0. -1.
        1   -1    0    0  501    0  0.00000000000E+00  0.00000000000E+00 -0.69065477724E+03  0.69065477726E+03  0.50400001928E-02 0.  1.
    10030    2    1    2    0    0  0.00000000000E+00  0.00000000000E+00  0.35389604831E+03  0.17352056028E+04  0.16987336669E+04 0.  0.
        2    1    3    3  502    0 -0.39869928901E+02 -0.79517763529E+03 -0.12525340040E+03  0.80596867012E+03  0.25500000920E-02 0.  1.
       -2    1    3    3    0  502  0.39869928901E+02  0.79517763529E+03  0.47914944871E+03  0.92923693270E+03  0.25500000920E-02 0. -1.
</event>
<event>
 5   0  0.1285639E-04  0.1713351E+04  0.7818609E-02  0.8753786E-01
        2   -1    0    0  501    0  0.00000000000E+00  0.00000000000E+00  0.79252009566E+03  0.79252009567E+03  0.25500000920E-02 0. -1.
       -2   -1    0    0    0  501  0.00000000000E+00  0.00000000000E+00 -0.92602427694E+03  0.92602427694E+03  0.25500000920E-02 0.  1.
    10030    2    1    2    0    0  0.00000000000E+00  0.00000000000E+00 -0.13350418128E+03  0.17185443726E+04  0.17133509256E+04 0.  0.
        4    1    3    3  502    0 -0.82787371532E+03 -0.17002824439E+01  0.15417325051E+03  0.84210972180E+03  0.12699999809E+01 0. -1.
       -4    1    3    3    0  502  0.82787371532E+03  0.17002824439E+01 -0.28767743179E+03  0.87643465081E+03  0.12699999809E+01 0.  1.
</event>
<event>
 5   0  0.1269175E-04  0.1706431E+04  0.7818609E-02  0.8757705E-01
       -2   -1    0    0    0  501  0.00000000000E+00  0.00000000000E+00  0.40451347476E+03  0.40451347477E+03  0.25500000920E-02 0. -1.
        2   -1    0    0  501    0  0.00000000000E+00  0.00000000000E+00 -0.17996358059E+04  0.17996358059E+04  0.25500000920E-02 0.  1.
    10030    2    1    2    0    0  0.00000000000E+00  0.00000000000E+00 -0.13951223311E+04  0.22041492806E+04  0.17064312856E+04 0.  0.
        2    1    3    3  502    0  0.38376826930E+03 -0.44699201432E+03  0.99618053419E+02  0.59749786775E+03  0.25500000920E-02 0. -1.
       -2    1    3    3    0  502 -0.38376826930E+03  0.44699201432E+03 -0.14947403845E+04  0.16066514129E+04  0.25500000920E-02 0.  1.
</event>
<event>
 5   0  0.1333546E-04  0.1698919E+04  0.7818609E-02  0.8761981E-01
       -2   -1    0    0    0  501  0.00000000000E+00  0.00000000000E+00  0.40150241750E+03  0.40150241751E+03  0.25500000920E-02 0. -1.
        2   -1    0    0  501    0  0.00000000000E+00  0.00000000000E+00 -0.17972027702E+04  0.17972027702E+04  0.25500000920E-02 0.  1.
    10030    2    1    2    0    0  0.00000000000E+00  0.00000000000E+00 -0.13957003527E+04  0.21987051877E+04  0.16989187820E+04 0.  0.
        5    1    3    3  502    0 -0.28808126986E+03  0.32705050226E+03  0.24575312211E+03  0.50036939964E+03  0.46999998093E+01 0. -1.
       -5    1    3    3    0  502  0.28808126986E+03 -0.32705050226E+03 -0.16414534748E+04  0.16983357881E+04  0.46999998093E+01 0.  1.
</event>
<event>
 5   0  0.6539134E-05  0.1690530E+04  0.7818609E-02  0.8766784E-01
       -1   -1    0    0    0  501  0.00000000000E+00  0.00000000000E+00  0.37484962739E+03  0.37484962742E+03  0.50400001928E-02 0.  1.
        1   -1    0    0  501    0  0.00000000000E+00  0.00000000000E+00 -0.19060255955E+04  0.19060255956E+04  0.50400001928E-02 0. -1.
    10030    2    1    2    0    0  0.00000000000E+00  0.00000000000E+00 -0.15311759682E+04  0.22808752230E+04  0.16905300758E+04 0.  0.
        2    1    3    3  502    0 -0.58572868620E+03  0.24853051003E+02 -0.15871401514E+04  0.16919543813E+04  0.25500000920E-02 0. -1.
       -2    1    3    3    0  502  0.58572868620E+03 -0.24853051003E+02  0.55964183278E+02  0.58892084171E+03  0.25500000920E-02 0.  1.
</event>
<event>
 5   0  0.1285639E-04  0.1700424E+04  0.7818609E-02  0.8761123E-01
       -2   -1    0    0    0  501  0.00000000000E+00  0.00000000000E+00  0.67432077346E+03  0.67432077346E+03  0.25500000920E-02 0. -1.
        2   -1    0    0  501    0  0.00000000000E+00  0.00000000000E+00 -0.10719825609E+04  0.10719825609E+04  0.25500000920E-02 0.  1.
    10030    2    1    2    0    0  0.00000000000E+00  0.00000000000E+00 -0.39766178746E+03  0.17463033344E+04  0.17004236056E+04 0.  0.
        4    1    3    3  502    0 -0.93246044334E+02 -0.72913153521E+03  0.23993284385E+03  0.77323799886E+03  0.12699999809E+01 0. -1.
       -4    1    3    3    0  502  0.93246044334E+02  0.72913153521E+03 -0.63759463131E+03  0.97306533552E+03  0.12699999809E+01 0.  1.
</event>
<event>
 5   0  0.1393870E-04  0.1700717E+04  0.7818609E-02  0.8760955E-01
       -2   -1    0    0    0  501  0.00000000000E+00  0.00000000000E+00  0.33572230115E+03  0.33572230116E+03  0.25500000920E-02 0.  1.
        2   -1    0    0  501    0  0.00000000000E+00  0.00000000000E+00 -0.21538928648E+04  0.21538928648E+04  0.25500000920E-02 0. -1.
    10030    2    1    2    0    0  0.00000000000E+00  0.00000000000E+00 -0.18181705636E+04  0.24896151659E+04  0.17007173416E+04 0.  0.
        3    1    3    3  502    0 -0.59759438563E+03  0.38736613522E+03 -0.15893295736E+04  0.17415912483E+04  0.10100000352E+00 0. -1.
       -3    1    3    3    0  502  0.59759438563E+03 -0.38736613522E+03 -0.22884099005E+03  0.74802391765E+03  0.10100000352E+00 0.  1.
</event>
<event>
 5   0  0.6615842E-05  0.1698527E+04  0.7818609E-02  0.8762205E-01
       -1   -1    0    0    0  501  0.00000000000E+00  0.00000000000E+00  0.43234620231E+03  0.43234620234E+03  0.50400001928E-02 0. -1.
        1   -1    0    0  501    0  0.00000000000E+00  0.00000000000E+00 -0.16682191431E+04  0.16682191431E+04  0.50400001928E-02 0.  1.
    10030    2    1    2    0    0  0.00000000000E+00  0.00000000000E+00 -0.12358729408E+04  0.21005653454E+04  0.16985266688E+04 0.  0.
        3    1    3    3  502    0 -0.74319486437E+03  0.38758205053E+03 -0.44886685817E+03  0.95081013819E+03  0.10100000352E+00 0.  1.
       -3    1    3    3    0  502  0.74319486437E+03 -0.38758205053E+03 -0.78700608258E+03  0.11497552072E+04  0.10100000352E+00 0. -1.
</event>
<event>
 5   0  0.1393870E-04  0.1696505E+04  0.7818609E-02  0.8763360E-01
       -2   -1    0    0    0  501  0.00000000000E+00  0.00000000000E+00  0.97933740353E+03  0.97933740353E+03  0.25500000920E-02 0. -1.
        2   -1    0    0  501    0  0.00000000000E+00  0.00000000000E+00 -0.73471315514E+03  0.73471315514E+03  0.25500000920E-02 0.  1.
    10030    2    1    2    0    0  0.00000000000E+00  0.00000000000E+00  0.24462424839E+03  0.17140505587E+04  0.16965047288E+04 0.  0.
        3    1    3    3  502    0 -0.51113308534E+03 -0.61415924764E+03 -0.16538443379E+03  0.81596607376E+03  0.10100000352E+00 0.  1.
       -3    1    3    3    0  502  0.51113308534E+03  0.61415924764E+03  0.41000868218E+03  0.89808448492E+03  0.10100000352E+00 0. -1.
</event>
<event>
 5   0  0.6539134E-05  0.1697704E+04  0.7818609E-02  0.8762675E-01
       -1   -1    0    0    0  501  0.00000000000E+00  0.00000000000E+00  0.98701467960E+03  0.98701467961E+03  0.50400001928E-02 0. -1.
        1   -1    0    0  501    0  0.00000000000E+00  0.00000000000E+00 -0.73002963832E+03  0.73002963834E+03  0.50400001928E-02 0.  1.
    10030    2    1    2    0    0  0.00000000000E+00  0.00000000000E+00  0.25698504128E+03  0.17170443179E+04  0.16977042965E+04 0.  0.
        2    1    3    3  502    0  0.80302431473E+03 -0.25920701571E+02 -0.14854400789E+03  0.81705890553E+03  0.25500000920E-02 0.  1.
       -2    1    3    3    0  502 -0.80302431473E+03  0.25920701571E+02  0.40552904917E+03  0.89998541241E+03  0.25500000920E-02 0. -1.
</event>
<event>
 5   0  0.6601906E-05  0.1668426E+04  0.7818609E-02  0.8779580E-01
        1   -1    0    0  501    0  0.00000000000E+00  0.00000000000E+00  0.93933462120E+03  0.93933462122E+03  0.50400001928E-02 0.  1.
       -1   -1    0    0    0  501  0.00000000000E+00  0.00000000000E+00 -0.74085585681E+03  0.74085585683E+03  0.50400001928E-02 0. -1.
    10030    2    1    2    0    0  0.00000000000E+00  0.00000000000E+00  0.19847876440E+03  0.16801904780E+04  0.16684262712E+04 0.  0.
        1    1    3    3  502    0 -0.21537725253E+03  0.49456007773E+03  0.74007095753E+03  0.91579585804E+03  0.50400001928E-02 0.  1.
       -1    1    3    3    0  502  0.21537725253E+03 -0.49456007773E+03 -0.54159219314E+03  0.76439462000E+03  0.50400001928E-02 0. -1.
</event>
<event>
 5   0  0.1285639E-04  0.1700204E+04  0.7818609E-02  0.8761248E-01
       -2   -1    0    0    0  501  0.00000000000E+00  0.00000000000E+00  0.70293749269E+03  0.70293749269E+03  0.25500000920E-02 0. -1.
        2   -1    0    0  501    0  0.00000000000E+00  0.00000000000E+00 -0.10280760651E+04  0.10280760651E+04  0.25500000920E-02 0.  1.
    10030    2    1    2    0    0  0.00000000000E+00  0.00000000000E+00 -0.32513857239E+03  0.17310135578E+04  0.17002037660E+04 0.  0.
        4    1    3    3  502    0  0.79020136865E+03 -0.30754483115E+03 -0.10089456056E+03  0.85392233337E+03  0.12699999809E+01 0. -1.
       -4    1    3    3    0  502 -0.79020136865E+03  0.30754483115E+03 -0.22424401183E+03  0.87709122440E+03  0.12699999809E+01 0.  1.
</event>
<event>
 5   0  0.1285639E-04  0.1714172E+04  0.7818609E-02  0.8753323E-01
       -2   -1    0    0    0  501  0.00000000000E+00  0.00000000000E+00  0.72167648034E+03  0.72167648034E+03  0.25500000920E-02 0.  1.
        2   -1    0    0  501    0  0.00000000000E+00  0.00000000000E+00 -0.10179022099E+04  0.10179022099E+04  0.25500000920E-02 0. -1.
    10030    2    1    2    0    0  0.00000000000E+00  0.00000000000E+00 -0.29622572961E+03  0.17395786903E+04  0.17141716183E+04 0.  0.
        4    1    3    3  502    0 -0.13779385886E+03 -0.35340462560E+03 -0.92808279026E+03  0.10026072289E+04  0.12699999809E+01 0. -1.
       -4    1    3    3    0  502  0.13779385886E+03  0.35340462560E+03  0.63185706065E+03  0.73697146141E+03  0.12699999809E+01 0.  1.
</event>
<event>
 5   0  0.1285639E-04  0.1694352E+04  0.7818609E-02  0.8764592E-01
        2   -1    0    0  501    0  0.00000000000E+00  0.00000000000E+00  0.11669919281E+04  0.11669919281E+04  0.25500000920E-02 0. -1.
       -2   -1    0    0    0  501  0.00000000000E+00  0.00000000000E+00 -0.61500585009E+03  0.61500585010E+03  0.25500000920E-02 0.  1.
    10030    2    1    2    0    0  0.00000000000E+00  0.00000000000E+00  0.55198607805E+03  0.17819977782E+04  0.16943516315E+04 0.  0.
        4    1    3    3  502    0 -0.80580630600E+03  0.22064762807E+03  0.12839063950E+03  0.84527802986E+03  0.12699999809E+01 0. -1.
       -4    1    3    3    0  502  0.80580630600E+03 -0.22064762807E+03  0.42359543854E+03  0.93671974838E+03  0.12699999809E+01 0.  1.
</event>
<event>
 5   0  0.6601906E-05  0.1709465E+04  0.7818609E-02  0.8755984E-01
        1   -1    0    0  501    0  0.00000000000E+00  0.00000000000E+00  0.14073849863E+04  0.14073849863E+04  0.50400001928E-02 0.  1.
       -1   -1    0    0    0  501  0.00000000000E+00  0.00000000000E+00 -0.51909595920E+03  0.51909595923E+03  0.50400001928E-02 0. -1.
    10030    2    1    2    0    0  0.00000000000E+00  0.00000000000E+00  0.88828902707E+03  0.19264809455E+04  0.17094652491E+04 0.  0.
        1    1    3    3  502    0 -0.79164926263E+03 -0.13149683251E+03  0.11256869466E+03  0.81035281392E+03  0.50400001928E-02 0. -1.
       -1    1    3    3    0  502  0.79164926263E+03  0.13149683251E+03  0.77572033240E+03  0.11161281316E+04  0.50400001928E-02 0.  1.
</event>
<event>
 5   0  0.1393870E-04  0.1646721E+04  0.7818609E-02  0.8792349E-01
       -2   -1    0    0    0  501  0.00000000000E+00  0.00000000000E+00  0.35798588942E+03  0.35798588943E+03  0.25500000920E-02 0. -1.
        2   -1    0    0  501    0  0.00000000000E+00  0.00000000000E+00 -0.18937121062E+04  0.18937121062E+04  0.25500000920E-02 0.  1.
    10030    2    1    2    0    0  0.00000000000E+00  0.00000000000E+00 -0.15357262168E+04  0.22516979957E+04  0.16467206353E+04 0.  0.
        3    1    3    3  502    0  0.22220752217E+03  0.76160547417E+03 -0.46671852426E+03  0.92045927248E+03  0.10100000352E+00 0.  1.
       -3    1    3    3    0  502 -0.22220752217E+03 -0.76160547417E+03 -0.10690076925E+04  0.13312387232E+04  0.10100000352E+00 0. -1.
</event>
<event>
 5   0  0.1255362E-04  0.1705625E+04  0.7818609E-02  0.8758163E-01
       -2   -1    0    0    0  501  0.00000000000E+00  0.00000000000E+00  0.66214809139E+03  0.66214809140E+03  0.25500000920E-02 0. -1.
        2   -1    0    0  501    0  0.00000000000E+00  0.00000000000E+00 -0.10983786483E+04  0.10983786483E+04  0.25500000920E-02 0.  1.
    10030    2    1    2    0    0  0.00000000000E+00  0.00000000000E+00 -0.43623055691E+03  0.17605267397E+04  0.17056251940E+04 0.  0.
        1    1    3    3  502    0  0.50858704121E+03 -0.62094548484E+03 -0.51558486740E+03  0.95397160814E+03  0.50400001928E-02 0.  1.
       -1    1    3    3    0  502 -0.50858704121E+03  0.62094548484E+03  0.79354310494E+02  0.80655513156E+03  0.50400001928E-02 0. -1.
</event>
<event>
 5   0  0.6539134E-05  0.1689658E+04  0.7818609E-02  0.8767285E-01
       -1   -1    0    0    0  501  0.00000000000E+00  0.00000000000E+00  0.71081250570E+03  0.71081250571E+03  0.50400001928E-02 0. -1.
        1   -1    0    0  501    0  0.00000000000E+00  0.00000000000E+00 -0.10041128582E+04  0.10041128582E+04  0.50400001928E-02 0.  1.
    10030    2    1    2    0    0  0.00000000000E+00  0.00000000000E+00 -0.29330035248E+03  0.17149253639E+04  0.16896579260E+04 0.  0.
        2    1    3    3  502    0 -0.13235055708E+03 -0.65154263079E+03  0.38240436842E+03  0.76697951126E+03  0.25500000920E-02 0. -1.
       -2    1    3    3    0  502  0.13235055708E+03  0.65154263079E+03 -0.67570472090E+03  0.94794585265E+03  0.25500000920E-02 0.  1.
</event>
<event>
 5   0  0.6601906E-05  0.1698980E+04  0.7818609E-02  0.8761946E-01
       -1   -1    0    0    0  501  0.00000000000E+00  0.00000000000E+00  0.52216248673E+03  0.52216248675E+03  0.50400001928E-02 0. -1.
        1   -1    0    0  501    0  0.00000000000E+00  0.00000000000E+00 -0.13820097285E+04  0.13820097285E+04  0.50400001928E-02 0.  1.
    10030    2    1    2    0    0  0.00000000000E+00  0.00000000000E+00 -0.85984724180E+03  0.19041722153E+04  0.16989804432E+04 0.  0.
        1    1    3    3  502    0 -0.77289162189E+03  0.18083235895E+03 -0.90768168495E+02  0.79893720759E+03  0.50400001928E-02 0. -1.
       -1    1    3    3    0  502  0.77289162189E+03 -0.18083235895E+03 -0.76907907331E+03  0.11052350077E+04  0.50400001928E-02 0.  1.
</event>
<event>
 5   0  0.6539134E-05  0.1733568E+04  0.7818609E-02  0.8742447E-01
        1   -1    0    0  501    0  0.00000000000E+00  0.00000000000E+00  0.13282829444E+04  0.13282829445E+04  0.50400001928E-02 0.  1.
       -1   -1    0    0    0  501  0.00000000000E+00  0.00000000000E+00 -0.56562857978E+03  0.56562857980E+03  0.50400001928E-02 0. -1.
    10030    2    1    2    0    0  0.00000000000E+00  0.00000000000E+00  0.76265436467E+03  0.18939115243E+04  0.17335683378E+04 0.  0.
        2    1    3    3  502    0 -0.21730525222E+03 -0.40982711896E+03  0.11812641772E+04  0.12690803349E+04  0.25500000920E-02 0.  1.
       -2    1    3    3    0  502  0.21730525222E+03  0.40982711896E+03 -0.41860981251E+03  0.62483118937E+03  0.25500000920E-02 0. -1.
</event>
<event>
 5   0  0.1393870E-04  0.1707902E+04  0.7818609E-02  0.8756871E-01
        2   -1    0    0  501    0  0.00000000000E+00  0.00000000000E+00  0.10214014654E+04  0.10214014654E+04  0.25500000920E-02 0.  1.
       -2   -1    0    0    0  501  0.00000000000E+00  0.00000000000E+00 -0.71395226769E+03  0.71395226770E+03  0.25500000920E-02 0. -1.
    10030    2    1    2    0    0  0.00000000000E+00  0.00000000000E+00  0.30744919767E+03  0.17353537331E+04  0.17079015105E+04 0.  0.
        3    1    3    3  502    0 -0.63761594676E+03  0.17274483536E+03 -0.39611773282E+03  0.77026238527E+03  0.10100000352E+00 0. -1.
       -3    1    3    3    0  502  0.63761594676E+03 -0.17274483536E+03  0.70356693049E+03  0.96509134779E+03  0.10100000352E+00 0.  1.
</event>
<event>
 5   0  0.6539134E-05  0.1699068E+04  0.7818609E-02  0.8761896E-01
        1   -1    0    0  501    0  0.00000000000E+00  0.00000000000E+00  0.96582589562E+03  0.96582589563E+03  0.50400001928E-02 0.  1.
       -1   -1    0    0    0  501  0.00000000000E+00  0.00000000000E+00 -0.74724472494E+03  0.74724472496E+03  0.50400001928E-02 0. -1.
    10030    2    1    2    0    0  0.00000000000E+00  0.00000000000E+00  0.21858117067E+03  0.17130706206E+04  0.16990683397E+04 0.  0.
        2    1    3    3  502    0  0.65349784224E+03  0.11413375714E+03  0.64434504402E+03  0.92480618515E+03  0.25500000920E-02 0.  1.
       -2    1    3    3    0  502 -0.65349784224E+03 -0.11413375714E+03 -0.42576387335E+03  0.78826443544E+03  0.25500000920E-02 0. -1.
</event>
<event>
 5   0  0.1269175E-04  0.1702194E+04  0.7818609E-02  0.8760114E-01
        2   -1    0    0  501    0  0.00000000000E+00  0.00000000000E+00  0.54907178080E+03  0.54907178081E+03  0.25500000920E-02 0. -1.
       -2   -1    0    0    0  501  0.00000000000E+00  0.00000000000E+00 -0.13192563802E+04  0.13192563802E+04  0.25500000920E-02 0.  1.
    10030    2    1    2    0    0  0.00000000000E+00  0.00000000000E+00 -0.77018459939E+03  0.18683281610E+04  0.17021944072E+04 0.  0.
        2    1    3    3  502    0 -0.50894399679E+03 -0.63664108148E+03 -0.65401676387E+03  0.10450233423E+04  0.25500000920E-02 0.  1.
       -2    1    3    3    0  502  0.50894399679E+03  0.63664108148E+03 -0.11616783552E+03  0.82330481871E+03  0.25500000920E-02 0. -1.
</event>
<event>
 5   0  0.6615842E-05  0.1705947E+04  0.7818609E-02  0.8757980E-01
       -1   -1    0    0    0  501  0.00000000000E+00  0.00000000000E+00  0.95956289393E+03  0.95956289394E+03  0.50400001928E-02 0. -1.
        1   -1    0    0  501    0  0.00000000000E+00  0.00000000000E+00 -0.75822413675E+03  0.75822413677E+03  0.50400001928E-02 0.  1.
    10030    2    1    2    0    0  0.00000000000E+00  0.00000000000E+00  0.20133875718E+03  0.17177870307E+04  0.17059469475E+04 0.  0.
        3    1    3    3  502    0 -0.26005152157E+03 -0.68077965269E+03 -0.34566317176E+03  0.80657967239E+03  0.10100000352E+00 0.  1.
       -3    1    3    3    0  502  0.26005152157E+03  0.68077965269E+03  0.54700192895E+03  0.91120735832E+03  0.10100000352E+00 0. -1.
</event>
<event>
 5   0  0.6601906E-05  0.1702566E+04  0.7818609E-02  0.8759902E-01
        1   -1    0    0  501    0  0.00000000000E+00  0.00000000000E+00  0.18538167216E+04  0.18538167216E+04  0.50400001928E-02 0.  1.
       -1   -1    0    0    0  501  0.00000000000E+00  0.00000000000E+00 -0.39091406439E+03  0.39091406442E+03  0.50400001928E-02 0. -1.
    10030    2    1    2    0    0  0.00000000000E+00  0.00000000000E+00  0.14629026572E+04  0.22447307860E+04  0.17025663327E+04 0.  0.
        1    1    3    3  502    0  0.18483696816E+03  0.54290154762E+03 -0.97988866228E+02  0.58181493031E+03  0.50400001928E-02 0. -1.
       -1    1    3    3    0  502 -0.18483696816E+03 -0.54290154762E+03  0.15608915234E+04  0.16629158557E+04  0.50400001928E-02 0.  1.
</event>
<event>
 5   0  0.1285639E-04  0.1698210E+04  0.7818609E-02  0.8762386E-01
        2   -1    0    0  501    0  0.00000000000E+00  0.00000000000E+00  0.11392686949E+04  0.11392686949E+04  0.25500000920E-02 0. -1.
       -2   -1    0    0    0  501  0.00000000000E+00  0.00000000000E+00 -0.63284367324E+03  0.63284367324E+03  0.25500000920E-02 0.  1.
    10030    2    1    2    0    0  0.00000000000E+00  0.00000000000E+00  0.50642502164E+03  0.17721123681E+04  0.16982096286E+04 0.  0.
        4    1    3    3  502    0 -0.62881333784E+02 -0.81764838249E+03  0.48296293812E+03  0.95171306181E+03  0.12699999809E+01 0. -1.
       -4    1    3    3    0  502  0.62881333784E+02  0.81764838249E+03  0.23462083515E+02  0.82039930631E+03  0.12699999809E+01 0.  1.
</event>
<event>
 5   0  0.1333546E-04  0.1700002E+04  0.7818609E-02  0.8761363E-01
       -2   -1    0    0    0  501  0.00000000000E+00  0.00000000000E+00  0.41584266135E+03  0.41584266136E+03  0.25500000920E-02 0.  1.
        2   -1    0    0  501    0  0.00000000000E+00  0.00000000000E+00 -0.17374397207E+04  0.17374397207E+04  0.25500000920E-02 0. -1.
    10030    2    1    2    0    0  0.00000000000E+00  0.00000000000E+00 -0.13215970594E+04  0.21532823821E+04  0.17000018323E+04 0.  0.
        5    1    3    3  502    0 -0.19288778476E+03  0.65668319828E+03 -0.22382976075E+02  0.68480771610E+03  0.46999998093E+01 0.  1.
       -5    1    3    3    0  502  0.19288778476E+03 -0.65668319828E+03 -0.12992140833E+04  0.14684746660E+04  0.46999998093E+01 0. -1.
</event>
<event>
 5   0  0.6539134E-05  0.1698012E+04  0.7818609E-02  0.8762499E-01
       -1   -1    0    0    0  501  0.00000000000E+00  0.00000000000E+00  0.33355400597E+03  0.33355400600E+03  0.50400001928E-02 0. -1.
        1   -1    0    0  501    0  0.00000000000E+00  0.00000000000E+00 -0.21610034215E+04  0.21610034215E+04  0.50400001928E-02 0.  1.
    10030    2    1    2    0    0  0.00000000000E+00  0.00000000000E+00 -0.18274494156E+04  0.24945574275E+04  0.16980121887E+04 0.  0.
        2    1    3    3  502    0  0.45074135148E+03  0.36415028326E+03 -0.18253252733E+04  0.19150941356E+04  0.25500000920E-02 0.  1.
       -2    1    3    3    0  502 -0.45074135148E+03 -0.36415028326E+03 -0.21241422510E+01  0.57946329196E+03  0.25500000920E-02 0. -1.
</event>
<event>
 5   0  0.6539134E-05  0.1600198E+04  0.7818609E-02  0.8820427E-01
        1   -1    0    0  501    0  0.00000000000E+00  0.00000000000E+00  0.70553879619E+03  0.70553879621E+03  0.50400001928E-02 0.  1.
       -1   -1    0    0    0  501  0.00000000000E+00  0.00000000000E+00 -0.90733245754E+03  0.90733245755E+03  0.50400001928E-02 0. -1.
    10030    2    1    2    0    0  0.00000000000E+00  0.00000000000E+00 -0.20179366135E+03  0.16128712538E+04  0.16001978001E+04 0.  0.
        2    1    3    3  502    0 -0.29565342135E+03  0.74346915784E+03 -0.10186130093E+03  0.80655629614E+03  0.25500000920E-02 0.  1.
       -2    1    3    3    0  502  0.29565342135E+03 -0.74346915784E+03 -0.99932360415E+02  0.80631495762E+03  0.25500000920E-02 0. -1.
</event>
<event>
 5   0  0.6601906E-05  0.1715911E+04  0.7818609E-02  0.8752341E-01
        1   -1    0    0  501    0  0.00000000000E+00  0.00000000000E+00  0.12379959246E+04  0.12379959246E+04  0.50400001928E-02 0. -1.
       -1   -1    0    0    0  501  0.00000000000E+00  0.00000000000E+00 -0.59458001865E+03  0.59458001867E+03  0.50400001928E-02 0.  1.
    10030    2    1    2    0    0  0.00000000000E+00  0.00000000000E+00  0.64341590597E+03  0.18325759433E+04  0.17159110000E+04 0.  0.
        1    1    3    3  502    0  0.27266513739E+03  0.70975304578E+03 -0.10279893299E+03  0.76724395324E+03  0.50400001928E-02 0.  1.
       -1    1    3    3    0  502 -0.27266513739E+03 -0.70975304578E+03  0.74621483896E+03  0.10653319901E+04  0.50400001928E-02 0. -1.
</event>
<event>
 5   0  0.6834837E-05  0.1702902E+04  0.7818609E-02  0.8759711E-01
       -1   -1    0    0    0  501  0.00000000000E+00  0.00000000000E+00  0.10308208163E+04  0.10308208163E+04  0.50400001928E-02 0. -1.
        1   -1    0    0  501    0  0.00000000000E+00  0.00000000000E+00 -0.70329257875E+03  0.70329257876E+03  0.50400001928E-02 0.  1.
    10030    2    1    2    0    0  0.00000000000E+00  0.00000000000E+00  0.32752823756E+03  0.17341133951E+04  0.17029017942E+04 0.  0.
        5    1    3    3  502    0 -0.62260820804E+03  0.42138015870E+03  0.57076992438E+03  0.94392934875E+03  0.46999998093E+01 0.  1.
       -5    1    3    3    0  502  0.62260820804E+03 -0.42138015870E+03 -0.24324168683E+03  0.79018404633E+03  0.46999998093E+01 0. -1.
</event>
<event>
 5   0  0.6615842E-05  0.1701083E+04  0.7818609E-02  0.8760747E-01
       -1   -1    0    0    0  501  0.00000000000E+00  0.00000000000E+00  0.60202487188E+03  0.60202487190E+03  0.50400001928E-02 0.  1.
        1   -1    0    0  501    0  0.00000000000E+00  0.00000000000E+00 -0.12016461058E+04  0.12016461058E+04  0.50400001928E-02 0. -1.
    10030    2    1    2    0    0  0.00000000000E+00  0.00000000000E+00 -0.59962123391E+03  0.18036709777E+04  0.17010829996E+04 0.  0.
        3    1    3    3  502    0  0.43368822388E+03  0.26209769438E+02 -0.10751037739E+04  0.11595777518E+04  0.10100000352E+00 0. -1.
       -3    1    3    3    0  502 -0.43368822388E+03 -0.26209769438E+02  0.47548254004E+03  0.64409322588E+03  0.10100000352E+00 0.  1.
</event>
<event>
 5   0  0.1255362E-04  0.1688645E+04  0.7818609E-02  0.8767867E-01
       -2   -1    0    0    0  501  0.00000000000E+00  0.00000000000E+00  0.11528687008E+04  0.11528687008E+04  0.25500000920E-02 0. -1.
        2   -1    0    0  501    0  0.00000000000E+00  0.00000000000E+00 -0.61835384809E+03  0.61835384810E+03  0.25500000920E-02 0.  1.
    10030    2    1    2    0    0  0.00000000000E+00  0.00000000000E+00  0.53451485268E+03  0.17712225489E+04  0.16886453713E+04 0.  0.
        1    1    3    3  502    0 -0.50124259948E+03 -0.66585676984E+02  0.97649088395E+03  0.10996418701E+04  0.50400001928E-02 0. -1.
       -1    1    3    3    0  502  0.50124259948E+03  0.66585676984E+02 -0.44197603127E+03  0.67158067881E+03  0.50400001928E-02 0.  1.
</event>
<event>
 5   0  0.6834837E-05  0.1700160E+04  0.7818609E-02  0.8761273E-01
        1   -1    0    0  501    0  0.00000000000E+00  0.00000000000E+00  0.80657802992E+03  0.80657802994E+03  0.50400001928E-02 0. -1.
       -1   -1    0    0    0  501  0.00000000000E+00  0.00000000000E+00 -0.89592792593E+03  0.89592792594E+03  0.50400001928E-02 0.  1.
    10030    2    1    2    0    0  0.00000000000E+00  0.00000000000E+00 -0.89349896005E+02  0.17025059559E+04  0.17001597354E+04 0.  0.
        5    1    3    3  502    0  0.38863534346E+03  0.15790475613E+03 -0.78504791025E+03  0.89010878749E+03  0.46999998093E+01 0.  1.
       -5    1    3    3    0  502 -0.38863534346E+03 -0.15790475613E+03  0.69569801424E+03  0.81239716839E+03  0.46999998093E+01 0. -1.
</event>
<event>
 5   0  0.6601906E-05  0.1693389E+04  0.7818609E-02  0.8765144E-01
       -1   -1    0    0    0  501  0.00000000000E+00  0.00000000000E+00  0.10548239917E+04  0.10548239917E+04  0.50400001928E-02 0. -1.
        1   -1    0    0  501    0  0.00000000000E+00  0.00000000000E+00 -0.67963113794E+03  0.67963113796E+03  0.50400001928E-02 0.  1.
    10030    2    1    2    0    0  0.00000000000E+00  0.00000000000E+00  0.37519285376E+03  0.17344551297E+04  0.16933885908E+04 0.  0.
        1    1    3    3  502    0  0.70182549495E+03  0.87559306605E+02 -0.28916531067E+03  0.76409569718E+03  0.50400001928E-02 0.  1.
       -1    1    3    3    0  502 -0.70182549495E+03 -0.87559306605E+02  0.66435816443E+03  0.97035943248E+03  0.50400001928E-02 0. -1.
</event>
<event>
 5   0  0.6601906E-05  0.1708695E+04  0.7818609E-02  0.8756421E-01
       -1   -1    0    0    0  501  0.00000000000E+00  0.00000000000E+00  0.48277333547E+03  0.48277333550E+03  0.50400001928E-02 0.  1.
        1   -1    0    0  501    0  0.00000000000E+00  0.00000000000E+00 -0.15119100137E+04  0.15119100137E+04  0.50400001928E-02 0. -1.
    10030    2    1    2    0    0  0.00000000000E+00  0.00000000000E+00 -0.10291366782E+04  0.19946833492E+04  0.17086952218E+04 0.  0.
        1    1    3    3  502    0  0.24609264152E+03 -0.70782610369E+03 -0.99351892756E+03  0.12444513814E+04  0.50400001928E-02 0. -1.
       -1    1    3    3    0  502 -0.24609264152E+03  0.70782610369E+03 -0.35617750660E+02  0.75023196777E+03  0.50400001928E-02 0.  1.
</event>
<event>
 5   0  0.6564887E-05  0.1699138E+04  0.7818609E-02  0.8761856E-01
       -1   -1    0    0    0  501  0.00000000000E+00  0.00000000000E+00  0.40007218503E+03  0.40007218506E+03  0.50400001928E-02 0. -1.
        1   -1    0    0  501    0  0.00000000000E+00  0.00000000000E+00 -0.18040940078E+04  0.18040940078E+04  0.50400001928E-02 0.  1.
    10030    2    1    2    0    0  0.00000000000E+00  0.00000000000E+00 -0.14040218227E+04  0.22041661928E+04  0.16991384072E+04 0.  0.
        4    1    3    3  502    0  0.29695078786E+03 -0.48962683468E+03 -0.15161190829E+04  0.16206581669E+04  0.12699999809E+01 0.  1.
       -4    1    3    3    0  502 -0.29695078786E+03  0.48962683468E+03  0.11209726015E+03  0.58350802589E+03  0.12699999809E+01 0. -1.
</event>
<event>
 5   0  0.6615842E-05  0.1697541E+04  0.7818609E-02  0.8762768E-01
        1   -1    0    0  501    0  0.00000000000E+00  0.00000000000E+00  0.90223349219E+03  0.90223349221E+03  0.50400001928E-02 0. -1.
       -1   -1    0    0    0  501  0.00000000000E+00  0.00000000000E+00 -0.79847554798E+03  0.79847554800E+03  0.50400001928E-02 0.  1.
    10030    2    1    2    0    0  0.00000000000E+00  0.00000000000E+00  0.10375794421E+03  0.17007090402E+04  0.16975410241E+04 0.  0.
        3    1    3    3  502    0 -0.43550219630E+03  0.32795485525E+03  0.70362728285E+03  0.89011679764E+03  0.10100000352E+00 0. -1.
       -3    1    3    3    0  502  0.43550219630E+03 -0.32795485525E+03 -0.59986933864E+03  0.81059224256E+03  0.10100000352E+00 0.  1.
</event>
<event>
 5   0  0.1255362E-04  0.1703146E+04  0.7818609E-02  0.8759572E-01
       -2   -1    0    0    0  501  0.00000000000E+00  0.00000000000E+00  0.65053843486E+03  0.65053843486E+03  0.25500000920E-02 0.  1.
        2   -1    0    0  501    0  0.00000000000E+00  0.00000000000E+00 -0.11147330853E+04  0.11147330853E+04  0.25500000920E-02 0. -1.
    10030    2    1    2    0    0  0.00000000000E+00  0.00000000000E+00 -0.46419465043E+03  0.17652715202E+04  0.17031461671E+04 0.  0.
        1    1    3    3  502    0  0.80987051458E+03 -0.24866944655E+03 -0.32155898036E+03  0.90616053871E+03  0.50400001928E-02 0. -1.
       -1    1    3    3    0  502 -0.80987051458E+03  0.24866944655E+03 -0.14263567007E+03  0.85911098145E+03  0.50400001928E-02 0.  1.
</event>
<event>
 5   0  0.1393870E-04  0.1710843E+04  0.7818609E-02  0.8755204E-01
       -2   -1    0    0    0  501  0.00000000000E+00  0.00000000000E+00  0.43811183821E+03  0.43811183822E+03  0.25500000920E-02 0.  1.
        2   -1    0    0  501    0  0.00000000000E+00  0.00000000000E+00 -0.16702268323E+04  0.16702268323E+04  0.25500000920E-02 0. -1.
    10030    2    1    2    0    0  0.00000000000E+00  0.00000000000E+00 -0.12321149941E+04  0.21083386705E+04  0.17108432397E+04 0.  0.
        3    1    3    3  502    0  0.11081611916E+03  0.77932984581E+03 -0.10286811393E+04  0.12953069587E+04  0.10100000352E+00 0. -1.
       -3    1    3    3    0  502 -0.11081611916E+03 -0.77932984581E+03 -0.20343385477E+03  0.81303171175E+03  0.10100000352E+00 0.  1.
</event>
<event>
 5   0  0.6615842E-05  0.1697886E+04  0.7818609E-02  0.8762571E-01
       -1   -1    0    0    0  501  0.00000000000E+00  0.00000000000E+00  0.52322447835E+03  0.52322447837E+03  0.50400001928E-02 0. -1.
        1   -1    0    0  501    0  0.00000000000E+00  0.00000000000E+00 -0.13774277859E+04  0.13774277859E+04  0.50400001928E-02 0.  1.
    10030    2    1    2    0    0  0.00000000000E+00  0.00000000000E+00 -0.85420330753E+03  0.19006522643E+04  0.16978856672E+04 0.  0.
        3    1    3    3  502    0  0.20823993007E+03 -0.19886750016E+03 -0.13210937551E+04  0.13521097852E+04  0.10100000352E+00 0.  1.
       -3    1    3    3    0  502 -0.20823993007E+03  0.19886750016E+03  0.46689044760E+03  0.54854247909E+03  0.10100000352E+00 0. -1.
</event>
<event>
 5   0  0.4720875E-05  0.1700755E+04  0.7818609E-02  0.8760934E-01
        4   -1    0    0  501    0  0.00000000000E+00  0.00000000000E+00  0.93290889672E+03  0.93290976117E+03  0.12699999809E+01 0. -1.
       -4   -1    0    0    0  501  0.00000000000E+00  0.00000000000E+00 -0.77514581768E+03  0.77514685806E+03  0.12699999809E+01 0.  1.
    10030    2    1    2    0    0  0.00000000000E+00  0.00000000000E+00  0.15776307905E+03  0.17080566192E+04  0.17007551927E+04 0.  0.
        3    1    3    3  502    0  0.37215531738E+03 -0.65315706845E+03  0.47811589313E+03  0.89090322358E+03  0.10100000352E+00 0.  1.
       -3    1    3    3    0  502 -0.37215531738E+03  0.65315706845E+03 -0.32035281408E+03  0.81715339565E+03  0.10100000352E+00 0. -1.
</event>
<event>
 5   0  0.6564887E-05  0.1720637E+04  0.7818609E-02  0.8749681E-01
        1   -1    0    0  501    0  0.00000000000E+00  0.00000000000E+00  0.13971045936E+04  0.13971045936E+04  0.50400001928E-02 0. -1.
       -1   -1    0    0    0  501  0.00000000000E+00  0.00000000000E+00 -0.52977293282E+03  0.52977293285E+03  0.50400001928E-02 0.  1.
    10030    2    1    2    0    0  0.00000000000E+00  0.00000000000E+00  0.86733166073E+03  0.19268775264E+04  0.17206373215E+04 0.  0.
        4    1    3    3  502    0  0.75554473588E+02 -0.53485567711E+03 -0.31619702424E+03  0.62590833582E+03  0.12699999809E+01 0.  1.
       -4    1    3    3    0  502 -0.75554473588E+02  0.53485567711E+03  0.11835286850E+04  0.13009691906E+04  0.12699999809E+01 0. -1.
</event>
<event>
 5   0  0.6539134E-05  0.1700575E+04  0.7818609E-02  0.8761037E-01
        1   -1    0    0  501    0  0.00000000000E+00  0.00000000000E+00  0.18290067405E+04  0.18290067405E+04  0.50400001928E-02 0.  1.
       -1   -1    0    0    0  501  0.00000000000E+00  0.00000000000E+00 -0.39529026390E+03  0.39529026393E+03  0.50400001928E-02 0. -1.
    10030    2    1    2    0    0  0.00000000000E+00  0.00000000000E+00  0.14337164766E+04  0.22242970045E+04  0.17005746760E+04 0.  0.
        2    1    3    3  502    0 -0.32005811196E+02 -0.91236491365E+02  0.18217931313E+04  0.18243570600E+04  0.25500000920E-02 0.  1.
       -2    1    3    3    0  502  0.32005811196E+02  0.91236491365E+02 -0.38807665462E+03  0.39993994446E+03  0.25500000920E-02 0. -1.
</event>
<event>
 5   0  0.6601906E-05  0.1695648E+04  0.7818609E-02  0.8763851E-01
       -1   -1    0    0    0  501  0.00000000000E+00  0.00000000000E+00  0.10714127732E+04  0.10714127732E+04  0.50400001928E-02 0. -1.
        1   -1    0    0  501    0  0.00000000000E+00  0.00000000000E+00 -0.67089480880E+03  0.67089480882E+03  0.50400001928E-02 0.  1.
    10030    2    1    2    0    0  0.00000000000E+00  0.00000000000E+00  0.40051796439E+03  0.17423075820E+04  0.16956476847E+04 0.  0.
        1    1    3    3  502    0  0.33636069017E+03 -0.41513218734E+03  0.87665274841E+03  0.10266417526E+04  0.50400001928E-02 0. -1.
       -1    1    3    3    0  502 -0.33636069017E+03  0.41513218734E+03 -0.47613478401E+03  0.71566582944E+03  0.50400001928E-02 0.  1.
</event>
<event>
 5   0  0.6834837E-05  0.1701635E+04  0.7818609E-02  0.8760432E-01
       -1   -1    0    0    0  501  0.00000000000E+00  0.00000000000E+00  0.34287403987E+03  0.34287403991E+03  0.50400001928E-02 0. -1.
        1   -1    0    0  501    0  0.00000000000E+00  0.00000000000E+00 -0.21112436046E+04  0.21112436046E+04  0.50400001928E-02 0.  1.
    10030    2    1    2    0    0  0.00000000000E+00  0.00000000000E+00 -0.17683695648E+04  0.24541176445E+04  0.17016352417E+04 0.  0.
        5    1    3    3  502    0  0.48737427994E+03  0.10900597794E+03 -0.18775873894E+04  0.19428773731E+04  0.46999998093E+01 0.  1.
       -5    1    3    3    0  502 -0.48737427994E+03 -0.10900597794E+03  0.10921782463E+03  0.51124027148E+03  0.46999998093E+01 0. -1.
</event>
<event>
 5   0  0.1333546E-04  0.1698329E+04  0.7818609E-02  0.8762318E-01
       -2   -1    0    0    0  501  0.00000000000E+00  0.00000000000E+00  0.74238034540E+03  0.74238034540E+03  0.25500000920E-02 0.  1.
        2   -1    0    0  501    0  0.00000000000E+00  0.00000000000E+00 -0.97130887152E+03  0.97130887153E+03  0.25500000920E-02 0. -1.
    10030    2    1    2    0    0  0.00000000000E+00  0.00000000000E+00 -0.22892852612E+03  0.17136892169E+04  0.16983293150E+04 0.  0.
        5    1    3    3  502    0  0.42235248700E+03  0.56799024465E+02 -0.85558005571E+03  0.95584887623E+03  0.46999998093E+01 0. -1.
       -5    1    3    3    0  502 -0.42235248700E+03 -0.56799024465E+02  0.62665152959E+03  0.75784034070E+03  0.46999998093E+01 0.  1.
</event>
<event>
 5   0  0.1285639E-04  0.1680336E+04  0.7818609E-02  0.8772660E-01
        2   -1    0    0  501    0  0.00000000000E+00  0.00000000000E+00  0.11756304829E+04  0.11756304829E+04  0.25500000920E-02 0. -1.
       -2   -1    0    0    0  501  0.00000000000E+00  0.00000000000E+00 -0.60042836687E+03  0.60042836688E+03  0.25500000920E-02 0.  1.
    10030    2    1    2    0    0  0.00000000000E+00  0.00000000000E+00  0.57520211606E+03  0.17760588498E+04  0.16803355509E+04 0.  0.
        4    1    3    3  502    0 -0.11479760842E+02 -0.55343202971E+03 -0.38043328606E+03  0.67167692715E+03  0.12699999809E+01 0.  1.
       -4    1    3    3    0  502  0.11479760842E+02  0.55343202971E+03  0.95563540212E+03  0.11043819227E+04  0.12699999809E+01 0. -1.
</event>
<event>
 5   0  0.6834837E-05  0.1698167E+04  0.7818609E-02  0.8762410E-01
        1   -1    0    0  501    0  0.00000000000E+00  0.00000000000E+00  0.71144502262E+03  0.71144502264E+03  0.50400001928E-02 0. -1.
       -1   -1    0    0    0  501  0.00000000000E+00  0.00000000000E+00 -0.10133500082E+04  0.10133500082E+04  0.50400001928E-02 0.  1.
    10030    2    1    2    0    0  0.00000000000E+00  0.00000000000E+00 -0.30190498554E+03  0.17247950308E+04  0.16981670348E+04 0.  0.
        5    1    3    3  502    0  0.31856624744E+02  0.34545332056E+03  0.63616241862E+03  0.72462235274E+03  0.46999998093E+01 0. -1.
       -5    1    3    3    0  502 -0.31856624744E+02 -0.34545332056E+03 -0.93806740416E+03  0.10001726781E+04  0.46999998093E+01 0.  1.
</event>
<event>
 5   0  0.4720875E-05  0.1698498E+04  0.7818609E-02  0.8762222E-01
        3   -1    0    0  501    0  0.00000000000E+00  0.00000000000E+00  0.54758426580E+03  0.54758427511E+03  0.10100000352E+00 0.  1.
       -3   -1    0    0    0  501  0.00000000000E+00  0.00000000000E+00 -0.13171003952E+04  0.13171003991E+04  0.10100000352E+00 0. -1.
    10030    2    1    2    0    0  0.00000000000E+00  0.00000000000E+00 -0.76951612944E+03  0.18646846742E+04  0.16984975304E+04 0.  0.
        1    1    3    3  502    0 -0.43504541637E+03 -0.47681753873E+03  0.22115214770E+03  0.68229594166E+03  0.50400001928E-02 0.  1.
       -1    1    3    3    0  502  0.43504541637E+03  0.47681753873E+03 -0.99066827714E+03  0.11823887326E+04  0.50400001928E-02 0. -1.
</event>
<event>
 5   0  0.1255362E-04  0.1740531E+04  0.7818609E-02  0.8738580E-01
       -2   -1    0    0    0  501  0.00000000000E+00  0.00000000000E+00  0.84435264331E+03  0.84435264331E+03  0.25500000920E-02 0.  1.
        2   -1    0    0  501    0  0.00000000000E+00  0.00000000000E+00 -0.89697327251E+03  0.89697327251E+03  0.25500000920E-02 0. -1.
    10030    2    1    2    0    0  0.00000000000E+00  0.00000000000E+00 -0.52620629201E+02  0.17413259158E+04  0.17405306704E+04 0.  0.
        1    1    3    3  502    0 -0.10230374879E+03  0.43297790566E+03 -0.77459979600E+03  0.89327530347E+03  0.50400001928E-02 0. -1.
       -1    1    3    3    0  502  0.10230374879E+03 -0.43297790566E+03  0.72197916680E+03  0.84805061236E+03  0.50400001928E-02 0.  1.
</event>
<event>
 5   0  0.1285639E-04  0.1699691E+04  0.7818609E-02  0.8761541E-01
       -2   -1    0    0    0  501  0.00000000000E+00  0.00000000000E+00  0.11514587963E+04  0.11514587963E+04  0.25500000920E-02 0. -1.
        2   -1    0    0  501    0  0.00000000000E+00  0.00000000000E+00 -0.62723671222E+03  0.62723671222E+03  0.25500000920E-02 0.  1.
    10030    2    1    2    0    0  0.00000000000E+00  0.00000000000E+00  0.52422208405E+03  0.17786955085E+04  0.16996908303E+04 0.  0.
        4    1    3    3  502    0 -0.38726313545E+03 -0.57135796961E+03  0.78095176694E+03  0.10422619348E+04  0.12699999809E+01 0. -1.
       -4    1    3    3    0  502  0.38726313545E+03  0.57135796961E+03 -0.25672968289E+03  0.73643357371E+03  0.12699999809E+01 0.  1.
</event>
<event>
 5   0  0.1285639E-04  0.1713728E+04  0.7818609E-02  0.8753573E-01
        2   -1    0    0  501    0  0.00000000000E+00  0.00000000000E+00  0.98602936198E+03  0.98602936198E+03  0.25500000920E-02 0.  1.
       -2   -1    0    0    0  501  0.00000000000E+00  0.00000000000E+00 -0.74461856457E+03  0.74461856458E+03  0.25500000920E-02 0. -1.
    10030    2    1    2    0    0  0.00000000000E+00  0.00000000000E+00  0.24141079740E+03  0.17306479266E+04  0.17137278292E+04 0.  0.
        4    1    3    3  502    0  0.19755614199E+03 -0.75127071763E+03 -0.24449755439E+03  0.81438122977E+03  0.12699999809E+01 0. -1.
       -4    1    3    3    0  502 -0.19755614199E+03  0.75127071763E+03  0.48590835179E+03  0.91626669679E+03  0.12699999809E+01 0.  1.
</event>
<event>
 5   0  0.6601906E-05  0.1704800E+04  0.7818609E-02  0.8758632E-01
       -1   -1    0    0    0  501  0.00000000000E+00  0.00000000000E+00  0.84066664415E+03  0.84066664416E+03  0.50400001928E-02 0.  1.
        1   -1    0    0  501    0  0.00000000000E+00  0.00000000000E+00 -0.86429702949E+03  0.86429702950E+03  0.50400001928E-02 0. -1.
    10030    2    1    2    0    0  0.00000000000E+00  0.00000000000E+00 -0.23630385343E+02  0.17049636737E+04  0.17047999101E+04 0.  0.
        1    1    3    3  502    0  0.10268945255E+03 -0.56107304431E+03 -0.64530922446E+03  0.86126191134E+03  0.50400001928E-02 0. -1.
       -1    1    3    3    0  502 -0.10268945255E+03  0.56107304431E+03  0.62167883912E+03  0.84370176233E+03  0.50400001928E-02 0.  1.
</event>
<event>
 5   0  0.6615842E-05  0.1712613E+04  0.7818609E-02  0.8754203E-01
        1   -1    0    0  501    0  0.00000000000E+00  0.00000000000E+00  0.71173519351E+03  0.71173519353E+03  0.50400001928E-02 0.  1.
       -1   -1    0    0    0  501  0.00000000000E+00  0.00000000000E+00 -0.10302442707E+04  0.10302442707E+04  0.50400001928E-02 0. -1.
    10030    2    1    2    0    0  0.00000000000E+00  0.00000000000E+00 -0.31850907723E+03  0.17419794643E+04  0.17126133310E+04 0.  0.
        3    1    3    3  502    0 -0.61183598175E+03 -0.59299113129E+03 -0.72472497956E+02  0.85512222723E+03  0.10100000352E+00 0.  1.
       -3    1    3    3    0  502  0.61183598175E+03  0.59299113129E+03 -0.24603657927E+03  0.88685723704E+03  0.10100000352E+00 0. -1.
</event>
<event>
 5   0  0.6615842E-05  0.1687208E+04  0.7818609E-02  0.8768694E-01
       -1   -1    0    0    0  501  0.00000000000E+00  0.00000000000E+00  0.63321679524E+03  0.63321679526E+03  0.50400001928E-02 0.  1.
        1   -1    0    0  501    0  0.00000000000E+00  0.00000000000E+00 -0.11238923471E+04  0.11238923471E+04  0.50400001928E-02 0. -1.
    10030    2    1    2    0    0  0.00000000000E+00  0.00000000000E+00 -0.49067555183E+03  0.17571091423E+04  0.16872077646E+04 0.  0.
        3    1    3    3  502    0 -0.21133075917E+03 -0.74973555169E+03  0.91968934846E+02  0.78436113011E+03  0.10100000352E+00 0.  1.
       -3    1    3    3    0  502  0.21133075917E+03  0.74973555169E+03 -0.58264448667E+03  0.97274801223E+03  0.10100000352E+00 0. -1.
</event>
<event>
 5   0  0.1285639E-04  0.1704891E+04  0.7818609E-02  0.8758580E-01
       -2   -1    0    0    0  501  0.00000000000E+00  0.00000000000E+00  0.58374342995E+03  0.58374342995E+03  0.25500000920E-02 0.  1.
        2   -1    0    0  501    0  0.00000000000E+00  0.00000000000E+00 -0.12448335488E+04  0.12448335488E+04  0.25500000920E-02 0. -1.
    10030    2    1    2    0    0  0.00000000000E+00  0.00000000000E+00 -0.66109011889E+03  0.18285769788E+04  0.17048910880E+04 0.  0.
        4    1    3    3  502    0  0.62279204782E+03 -0.56616185168E+03 -0.47544865433E+03  0.96667585721E+03  0.12699999809E+01 0.  1.
       -4    1    3    3    0  502 -0.62279204782E+03  0.56616185168E+03 -0.18564146457E+03  0.86190112158E+03  0.12699999809E+01 0. -1.
</event>
<event>
 5   0  0.6564887E-05  0.1685606E+04  0.7818609E-02  0.8769617E-01
        1   -1    0    0  501    0  0.00000000000E+00  0.00000000000E+00  0.11289449677E+04  0.11289449677E+04  0.50400001928E-02 0.  1.
       -1   -1    0    0    0  501  0.00000000000E+00  0.00000000000E+00 -0.62918635528E+03  0.62918635530E+03  0.50400001928E-02 0. -1.
    10030    2    1    2    0    0  0.00000000000E+00  0.00000000000E+00  0.49975861241E+03  0.17581313230E+04  0.16856058490E+04 0.  0.
        4    1    3    3  502    0  0.20118384192E+03 -0.81015725800E+03  0.37100262813E+03  0.91349563979E+03  0.12699999809E+01 0.  1.
       -4    1    3    3    0  502 -0.20118384192E+03  0.81015725800E+03  0.12875598427E+03  0.84463568320E+03  0.12699999809E+01 0. -1.
</event>
<event>
 5   0  0.1255362E-04  0.1694510E+04  0.7818609E-02  0.8764502E-01
       -2   -1    0    0    0  501  0.00000000000E+00  0.00000000000E+00  0.53228755661E+03  0.53228755662E+03  0.25500000920E-02 0.  1.
        2   -1    0    0  501    0  0.00000000000E+00  0.00000000000E+00 -0.13485962245E+04  0.13485962245E+04  0.25500000920E-02 0. -1.
    10030    2    1    2    0    0  0.00000000000E+00  0.00000000000E+00 -0.81630866788E+03  0.18808837811E+04  0.16945099459E+04 0.  0.
        1    1    3    3  502    0 -0.50857167621E+03 -0.17582083765E+03 -0.11345666395E+04  0.12557068035E+04  0.50400001928E-02 0. -1.
       -1    1    3    3    0  502  0.50857167621E+03  0.17582083765E+03  0.31825797165E+03  0.62517697761E+03  0.50400001928E-02 0.  1.
</event>
<event>
 5   0  0.6834837E-05  0.1633249E+04  0.7818609E-02  0.8800378E-01
        1   -1    0    0  501    0  0.00000000000E+00  0.00000000000E+00  0.14119963507E+04  0.14119963507E+04  0.50400001928E-02 0. -1.
       -1   -1    0    0    0  501  0.00000000000E+00  0.00000000000E+00 -0.47229255697E+03  0.47229255699E+03  0.50400001928E-02 0.  1.
    10030    2    1    2    0    0  0.00000000000E+00  0.00000000000E+00  0.93970379373E+03  0.18842889077E+04  0.16332487464E+04 0.  0.
        5    1    3    3  502    0 -0.54037389894E+03  0.20558776415E+03  0.11351942650E+04  0.12739538409E+04  0.46999998093E+01 0. -1.
       -5    1    3    3    0  502  0.54037389894E+03 -0.20558776415E+03 -0.19549047127E+03  0.61033506681E+03  0.46999998093E+01 0.  1.
</event>
<event>
 5   0  0.1393870E-04  0.1698747E+04  0.7818609E-02  0.8762080E-01
       -2   -1    0    0    0  501  0.00000000000E+00  0.00000000000E+00  0.86756490052E+03  0.86756490052E+03  0.25500000920E-02 0.  1.
        2   -1    0    0  501    0  0.00000000000E+00  0.00000000000E+00 -0.83156317996E+03  0.83156317997E+03  0.25500000920E-02 0. -1.
    10030    2    1    2    0    0  0.00000000000E+00  0.00000000000E+00  0.36001720556E+02  0.16991280805E+04  0.16987466291E+04 0.  0.
        3    1    3    3  502    0 -0.39685949499E+03 -0.25404662398E+03  0.72484042825E+03  0.86454080444E+03  0.10100000352E+00 0.  1.
       -3    1    3    3    0  502  0.39685949499E+03  0.25404662398E+03 -0.68883870770E+03  0.83458727605E+03  0.10100000352E+00 0. -1.
</event>
<event>
 5   0  0.1255362E-04  0.1684471E+04  0.7818609E-02  0.8770271E-01
        2   -1    0    0  501    0  0.00000000000E+00  0.00000000000E+00  0.11060982765E+04  0.11060982765E+04  0.25500000920E-02 0.  1.
       -2   -1    0    0    0  501  0.00000000000E+00  0.00000000000E+00 -0.64131761060E+03  0.64131761060E+03  0.25500000920E-02 0. -1.
    10030    2    1    2    0    0  0.00000000000E+00  0.00000000000E+00  0.46478066586E+03  0.17474158871E+04  0.16844706038E+04 0.  0.
        1    1    3    3  502    0  0.82782545981E+03 -0.29296972030E+02  0.74359314995E+02  0.83167458314E+03  0.50400001928E-02 0.  1.
       -1    1    3    3    0  502 -0.82782545981E+03  0.29296972030E+02  0.39042135087E+03  0.91574130393E+03  0.50400001928E-02 0. -1.
</event>
<event>
 5   0  0.6834837E-05  0.1699536E+04  0.7818609E-02  0.8761629E-01
        1   -1    0    0  501    0  0.00000000000E+00  0.00000000000E+00  0.95179636966E+03  0.95179636968E+03  0.50400001928E-02 0. -1.
       -1   -1    0    0    0  501  0.00000000000E+00  0.00000000000E+00 -0.75867660223E+03  0.75867660225E+03  0.50400001928E-02 0.  1.
    10030    2    1    2    0    0  0.00000000000E+00  0.00000000000E+00  0.19311976743E+03  0.17104729719E+04  0.16995359788E+04 0.  0.
        5    1    3    3  502    0  0.70048161986E+03 -0.93125708518E+02 -0.37842708331E+03  0.80160841109E+03  0.46999998093E+01 0.  1.
       -5    1    3    3    0  502 -0.70048161986E+03  0.93125708518E+02  0.57154685074E+03  0.90886456083E+03  0.46999998093E+01 0. -1.
</event>
<event>
 5   0  0.6539134E-05  0.1704628E+04  0.7818609E-02  0.8758729E-01
       -1   -1    0    0    0  501  0.00000000000E+00  0.00000000000E+00  0.74423195779E+03  0.74423195781E+03  0.50400001928E-02 0. -1.
        1   -1    0    0  501    0  0.00000000000E+00  0.00000000000E+00 -0.97609260347E+03  0.97609260349E+03  0.50400001928E-02 0.  1.
    10030    2    1    2    0    0  0.00000000000E+00  0.00000000000E+00 -0.23186064568E+03  0.17203245613E+04  0.17046281815E+04 0.  0.
        2    1    3    3  502    0  0.50655282426E+03 -0.94555147035E+02  0.56921931399E+03  0.76781968393E+03  0.25500000920E-02 0. -1.
       -2    1    3    3    0  502 -0.50655282426E+03  0.94555147035E+02 -0.80107995968E+03  0.95250487736E+03  0.25500000920E-02 0.  1.
</event>
<event>
 5   0  0.1269175E-04  0.1697044E+04  0.7818609E-02  0.8763052E-01
       -2   -1    0    0    0  501  0.00000000000E+00  0.00000000000E+00  0.12671828635E+04  0.12671828635E+04  0.25500000920E-02 0.  1.
        2   -1    0    0  501    0  0.00000000000E+00  0.00000000000E+00 -0.56818145326E+03  0.56818145327E+03  0.25500000920E-02 0. -1.
    10030    2    1    2    0    0  0.00000000000E+00  0.00000000000E+00  0.69900141022E+03  0.18353643168E+04  0.16970442551E+04 0.  0.
        2    1    3    3  502    0  0.36343358812E+03  0.19845880766E+03  0.11504874363E+04  0.12227392250E+04  0.25500000920E-02 0.  1.
       -2    1    3    3    0  502 -0.36343358812E+03 -0.19845880766E+03 -0.45148602606E+03  0.61262509175E+03  0.25500000920E-02 0. -1.
</event>
<event>
 5   0  0.1269175E-04  0.1640286E+04  0.7818609E-02  0.8796174E-01
        2   -1    0    0  501    0  0.00000000000E+00  0.00000000000E+00  0.93941054367E+03  0.93941054367E+03  0.25500000920E-02 0.  1.
       -2   -1    0    0    0  501  0.00000000000E+00  0.00000000000E+00 -0.71601787135E+03  0.71601787135E+03  0.25500000920E-02 0. -1.
    10030    2    1    2    0    0  0.00000000000E+00  0.00000000000E+00  0.22339267233E+03  0.16554284150E+04  0.16402862406E+04 0.  0.
        2    1    3    3  502    0 -0.51616394824E+02  0.51329868151E+03 -0.53175890166E+03  0.74088279650E+03  0.25500000920E-02 0. -1.
       -2    1    3    3    0  502  0.51616394824E+02 -0.51329868151E+03  0.75515157398E+03  0.91454561852E+03  0.25500000920E-02 0.  1.
</event>
<event>
 5   0  0.6615842E-05  0.1690347E+04  0.7818609E-02  0.8766889E-01
       -1   -1    0    0    0  501  0.00000000000E+00  0.00000000000E+00  0.58062643035E+03  0.58062643037E+03  0.50400001928E-02 0.  1.
        1   -1    0    0  501    0  0.00000000000E+00  0.00000000000E+00 -0.12302540517E+04  0.12302540517E+04  0.50400001928E-02 0. -1.
    10030    2    1    2    0    0  0.00000000000E+00  0.00000000000E+00 -0.64962762138E+03  0.18108804821E+04  0.16903467319E+04 0.  0.
        3    1    3    3  502    0  0.31923114094E+03 -0.63484449365E+03 -0.81502544666E+03  0.10812966944E+04  0.10100000352E+00 0. -1.
       -3    1    3    3    0  502 -0.31923114094E+03  0.63484449365E+03  0.16539782528E+03  0.72958378769E+03  0.10100000352E+00 0.  1.
</event>
<event>
 5   0  0.6539134E-05  0.1693480E+04  0.7818609E-02  0.8765092E-01
        1   -1    0    0  501    0  0.00000000000E+00  0.00000000000E+00  0.12844359904E+04  0.12844359904E+04  0.50400001928E-02 0.  1.
       -1   -1    0    0    0  501  0.00000000000E+00  0.00000000000E+00 -0.55819730070E+03  0.55819730073E+03  0.50400001928E-02 0. -1.
    10030    2    1    2    0    0  0.00000000000E+00  0.00000000000E+00  0.72623868972E+03  0.18426332912E+04  0.16934800888E+04 0.  0.
        2    1    3    3  502    0 -0.51018214149E+03 -0.52348261633E+03 -0.10189598762E+03  0.73803974107E+03  0.25500000920E-02 0. -1.
       -2    1    3    3    0  502  0.51018214149E+03  0.52348261633E+03  0.82813467734E+03  0.11045935501E+04  0.25500000920E-02 0.  1.
</event>
<event>
 5   0  0.1255362E-04  0.1706529E+04  0.7818609E-02  0.8757650E-01
       -2   -1    0    0    0  501  0.00000000000E+00  0.00000000000E+00  0.93703355145E+03  0.93703355146E+03  0.25500000920E-02 0.  1.
        2   -1    0    0  501    0  0.00000000000E+00  0.00000000000E+00 -0.77698382302E+03  0.77698382303E+03  0.25500000920E-02 0. -1.
    10030    2    1    2    0    0  0.00000000000E+00  0.00000000000E+00  0.16004972843E+03  0.17140173745E+04  0.17065285361E+04 0.  0.
        1    1    3    3  502    0 -0.72135109059E+03 -0.45181213226E+03  0.14010636714E+03  0.86261891522E+03  0.50400001928E-02 0.  1.
       -1    1    3    3    0  502  0.72135109059E+03  0.45181213226E+03  0.19943361290E+02  0.85139845927E+03  0.50400001928E-02 0. -1.
</event>
<event>
 5   0  0.6564887E-05  0.1710318E+04  0.7818609E-02  0.8755501E-01
       -1   -1    0    0    0  501  0.00000000000E+00  0.00000000000E+00  0.40108361977E+03  0.40108361980E+03  0.50400001928E-02 0.  1.
        1   -1    0    0  501    0  0.00000000000E+00  0.00000000000E+00 -0.18233027292E+04  0.18233027292E+04  0.50400001928E-02 0. -1.
    10030    2    1    2    0    0  0.00000000000E+00  0.00000000000E+00 -0.14222191094E+04  0.22243863490E+04  0.17103179337E+04 0.  0.
        4    1    3    3  502    0  0.58552147862E+03 -0.18586218958E+03 -0.14848279312E+04  0.16068900876E+04  0.12699999809E+01 0. -1.
       -4    1    3    3    0  502 -0.58552147862E+03  0.18586218958E+03  0.62608821745E+02  0.61749626144E+03  0.12699999809E+01 0.  1.
</event>
<event>
 5   0  0.1255362E-04  0.1701333E+04  0.7818609E-02  0.8760605E-01
        2   -1    0    0  501    0  0.00000000000E+00  0.00000000000E+00  0.12384655582E+04  0.12384655582E+04  0.25500000920E-02 0.  1.
       -2   -1    0    0    0  501  0.00000000000E+00  0.00000000000E+00 -0.58429819459E+03  0.58429819459E+03  0.25500000920E-02 0. -1.
    10030    2    1    2    0    0  0.00000000000E+00  0.00000000000E+00  0.65416736357E+03  0.18227637528E+04  0.17013326420E+04 0.  0.
        1    1    3    3  502    0  0.43952070313E+03 -0.31708521475E+03 -0.37539117648E+03  0.65927233925E+03  0.50400001928E-02 0. -1.
       -1    1    3    3    0  502 -0.43952070313E+03  0.31708521475E+03  0.10295585400E+04  0.11634914135E+04  0.50400001928E-02 0.  1.
</event>
<event>
 5   0  0.6601906E-05  0.1699210E+04  0.7818609E-02  0.8761815E-01
        1   -1    0    0  501    0  0.00000000000E+00  0.00000000000E+00  0.15598258347E+04  0.15598258347E+04  0.50400001928E-02 0.  1.
       -1   -1    0    0    0  501  0.00000000000E+00  0.00000000000E+00 -0.46276247000E+03  0.46276247002E+03  0.50400001928E-02 0. -1.
    10030    2    1    2    0    0  0.00000000000E+00  0.00000000000E+00  0.10970633647E+04  0.20225883047E+04  0.16992102354E+04 0.  0.
        1    1    3    3  502    0  0.15244613544E+03 -0.43295597984E+03  0.13995316139E+04  0.14728813405E+04  0.50400001928E-02 0.  1.
       -1    1    3    3    0  502 -0.15244613544E+03  0.43295597984E+03 -0.30246824926E+03  0.54970696423E+03  0.50400001928E-02 0. -1.
</event>
<event>
 5   0  0.1285639E-04  0.1696093E+04  0.7818609E-02  0.8763596E-01
        2   -1    0    0  501    0  0.00000000000E+00  0.00000000000E+00  0.13740505963E+04  0.13740505963E+04  0.25500000920E-02 0. -1.
       -2   -1    0    0    0  501  0.00000000000E+00  0.00000000000E+00 -0.52340327103E+03  0.52340327104E+03  0.25500000920E-02 0.  1.
    10030    2    1    2    0    0  0.00000000000E+00  0.00000000000E+00  0.85064732531E+03  0.18974538674E+04  0.16960926587E+04 0.  0.
        4    1    3    3  502    0 -0.40650932674E+03  0.63593972811E+03  0.85789663093E+03  0.11426536714E+04  0.12699999809E+01 0. -1.
       -4    1    3    3    0  502  0.40650932674E+03 -0.63593972811E+03 -0.72493056198E+01  0.75480019598E+03  0.12699999809E+01 0.  1.
</event>
<event>
 5   0  0.4720875E-05  0.1694599E+04  0.7818609E-02  0.8764451E-01
        3   -1    0    0  501    0  0.00000000000E+00  0.00000000000E+00  0.25618536228E+03  0.25618538219E+03  0.10100000352E+00 0. -1.
       -3   -1    0    0    0  501  0.00000000000E+00  0.00000000000E+00 -0.28023311149E+04  0.28023311168E+04  0.10100000352E+00 0.  1.
    10030    2    1    2    0    0  0.00000000000E+00  0.00000000000E+00 -0.25461457527E+04  0.30585164990E+04  0.16945987668E+04 0.  0.
        1    1    3    3  502    0  0.12550900371E+03  0.23843397539E+03  0.17679737851E+03  0.32227408165E+03  0.50400001928E-02 0. -1.
       -1    1    3    3    0  502 -0.12550900371E+03 -0.23843397539E+03 -0.27229431312E+04  0.27362424173E+04  0.50400001928E-02 0.  1.
</event>
<event>
 5   0  0.1393870E-04  0.1699974E+04  0.7818609E-02  0.8761379E-01
       -2   -1    0    0    0  501  0.00000000000E+00  0.00000000000E+00  0.95548591332E+03  0.95548591333E+03  0.25500000920E-02 0. -1.
        2   -1    0    0  501    0  0.00000000000E+00  0.00000000000E+00 -0.75613683150E+03  0.75613683151E+03  0.25500000920E-02 0.  1.
    10030    2    1    2    0    0  0.00000000000E+00  0.00000000000E+00  0.19934908182E+03  0.17116227448E+04  0.16999742246E+04 0.  0.
        3    1    3    3  502    0  0.35199076016E+03  0.76193326384E+03 -0.35552442332E+02  0.84006177162E+03  0.10100000352E+00 0.  1.
       -3    1    3    3    0  502 -0.35199076016E+03 -0.76193326384E+03  0.23490152415E+03  0.87156097321E+03  0.10100000352E+00 0. -1.
</event>
<event>
 5   0  0.1269175E-04  0.1702062E+04  0.7818609E-02  0.8760189E-01
       -2   -1    0    0    0  501  0.00000000000E+00  0.00000000000E+00  0.40190253772E+03  0.40190253773E+03  0.25500000920E-02 0. -1.
        2   -1    0    0  501    0  0.00000000000E+00  0.00000000000E+00 -0.18020627259E+04  0.18020627259E+04  0.25500000920E-02 0.  1.
    10030    2    1    2    0    0  0.00000000000E+00  0.00000000000E+00 -0.14001601882E+04  0.22039652637E+04  0.17020617882E+04 0.  0.
        2    1    3    3  502    0  0.43788053159E+03 -0.50255113936E+02 -0.16427566504E+04  0.17008569454E+04  0.25500000920E-02 0.  1.
       -2    1    3    3    0  502 -0.43788053159E+03  0.50255113936E+02  0.24259646217E+03  0.50310831824E+03  0.25500000920E-02 0. -1.
</event>
<event>
 5   0  0.1255362E-04  0.1703255E+04  0.7818609E-02  0.8759510E-01
       -2   -1    0    0    0  501  0.00000000000E+00  0.00000000000E+00  0.45365562441E+03  0.45365562442E+03  0.25500000920E-02 0.  1.
        2   -1    0    0  501    0  0.00000000000E+00  0.00000000000E+00 -0.15987218037E+04  0.15987218037E+04  0.25500000920E-02 0. -1.
    10030    2    1    2    0    0  0.00000000000E+00  0.00000000000E+00 -0.11450661793E+04  0.20523774281E+04  0.17032546940E+04 0.  0.
        1    1    3    3  502    0  0.82639841039E+03  0.48889037251E+02 -0.81336112352E+03  0.11605519325E+04  0.50400001928E-02 0. -1.
       -1    1    3    3    0  502 -0.82639841039E+03 -0.48889037251E+02 -0.33170505577E+03  0.89182549566E+03  0.50400001928E-02 0.  1.
</event>
<event>
 5   0  0.6564887E-05  0.1703875E+04  0.7818609E-02  0.8759157E-01
       -1   -1    0    0    0  501  0.00000000000E+00  0.00000000000E+00  0.58388335729E+03  0.58388335731E+03  0.50400001928E-02 0.  1.
        1   -1    0    0  501    0  0.00000000000E+00  0.00000000000E+00 -0.12430522838E+04  0.12430522838E+04  0.50400001928E-02 0. -1.
    10030    2    1    2    0    0  0.00000000000E+00  0.00000000000E+00 -0.65916892655E+03  0.18269356412E+04  0.17038750433E+04 0.  0.
        4    1    3    3  502    0 -0.49816776308E+03 -0.67011130298E+03 -0.14833214896E+03  0.84807093917E+03  0.12699999809E+01 0.  1.
       -4    1    3    3    0  502  0.49816776308E+03  0.67011130298E+03 -0.51083677758E+03  0.97886470198E+03  0.12699999809E+01 0. -1.
</event>
<event>
 5   0  0.1269175E-04  0.1702771E+04  0.7818609E-02  0.8759786E-01
       -2   -1    0    0    0  501  0.00000000000E+00  0.00000000000E+00  0.38026989826E+03  0.38026989827E+03  0.25500000920E-02 0. -1.
        2   -1    0    0  501    0  0.00000000000E+00  0.00000000000E+00 -0.19061647890E+04  0.19061647890E+04  0.25500000920E-02 0.  1.
    10030    2    1    2    0    0  0.00000000000E+00  0.00000000000E+00 -0.15258948907E+04  0.22864346873E+04  0.17027707895E+04 0.  0.
        2    1    3    3  502    0 -0.23339617269E+03  0.68300986760E+03 -0.15664291485E+03  0.73858869166E+03  0.25500000920E-02 0.  1.
       -2    1    3    3    0  502  0.23339617269E+03 -0.68300986760E+03 -0.13692519759E+04  0.15478459956E+04  0.25500000920E-02 0. -1.
</event>
<event>
 5   0  0.6615842E-05  0.1693286E+04  0.7818609E-02  0.8765203E-01
        1   -1    0    0  501    0  0.00000000000E+00  0.00000000000E+00  0.60499856803E+03  0.60499856805E+03  0.50400001928E-02 0.  1.
       -1   -1    0    0    0  501  0.00000000000E+00  0.00000000000E+00 -0.11848033123E+04  0.11848033123E+04  0.50400001928E-02 0. -1.
    10030    2    1    2    0    0  0.00000000000E+00  0.00000000000E+00 -0.57980474428E+03  0.17898018804E+04  0.16932859267E+04 0.  0.
        3    1    3    3  502    0 -0.35232876384E+03 -0.38835897894E+03 -0.99250560870E+03  0.11225086404E+04  0.10100000352E+00 0. -1.
       -3    1    3    3    0  502  0.35232876384E+03  0.38835897894E+03  0.41270086443E+03  0.66729323992E+03  0.10100000352E+00 0.  1.
</event>
<event>
 5   0  0.6564887E-05  0.1704817E+04  0.7818609E-02  0.8758622E-01
       -1   -1    0    0    0  501  0.00000000000E+00  0.00000000000E+00  0.69164913605E+03  0.69164913607E+03  0.50400001928E-02 0. -1.
        1   -1    0    0  501    0  0.00000000000E+00  0.00000000000E+00 -0.10505325863E+04  0.10505325863E+04  0.50400001928E-02 0.  1.
    10030    2    1    2    0    0  0.00000000000E+00  0.00000000000E+00 -0.35888345022E+03  0.17421817224E+04  0.17048166537E+04 0.  0.
        4    1    3    3  502    0  0.43958216622E+03 -0.18833598574E+03  0.54164058091E+03  0.72255038313E+03  0.12699999809E+01 0. -1.
       -4    1    3    3    0  502 -0.43958216622E+03  0.18833598574E+03 -0.90052403113E+03  0.10196313392E+04  0.12699999809E+01 0.  1.
</event>
<event>
 5   0  0.6539134E-05  0.1622041E+04  0.7818609E-02  0.8807121E-01
        1   -1    0    0  501    0  0.00000000000E+00  0.00000000000E+00  0.54394972879E+03  0.54394972881E+03  0.50400001928E-02 0.  1.
       -1   -1    0    0    0  501  0.00000000000E+00  0.00000000000E+00 -0.12092183088E+04  0.12092183088E+04  0.50400001928E-02 0. -1.
    10030    2    1    2    0    0  0.00000000000E+00  0.00000000000E+00 -0.66526858001E+03  0.17531680376E+04  0.16220406544E+04 0.  0.
        2    1    3    3  502    0 -0.61499380217E+03 -0.42490135987E+03 -0.67270511885E+03  0.10056295139E+04  0.25500000920E-02 0. -1.
       -2    1    3    3    0  502  0.61499380217E+03  0.42490135987E+03  0.74365388362E+01  0.74753852371E+03  0.25500000920E-02 0.  1.
</event>
<event>
 5   0  0.6834837E-05  0.1699576E+04  0.7818609E-02  0.8761606E-01
        1   -1    0    0  501    0  0.00000000000E+00  0.00000000000E+00  0.96870718194E+03  0.96870718195E+03  0.50400001928E-02 0. -1.
       -1   -1    0    0    0  501  0.00000000000E+00  0.00000000000E+00 -0.74546706200E+03  0.74546706202E+03  0.50400001928E-02 0.  1.
    10030    2    1    2    0    0  0.00000000000E+00  0.00000000000E+00  0.22324011994E+03  0.17141742440E+04  0.16995755904E+04 0.  0.
        5    1    3    3  502    0  0.67108137089E+03 -0.13477226391E+03 -0.39629612057E+03  0.79094024721E+03  0.46999998093E+01 0.  1.
       -5    1    3    3    0  502 -0.67108137089E+03  0.13477226391E+03  0.61953624051E+03  0.92323399676E+03  0.46999998093E+01 0. -1.
</event>
<event>
 5   0  0.1255362E-04  0.1697707E+04  0.7818609E-02  0.8762673E-01
       -2   -1    0    0    0  501  0.00000000000E+00  0.00000000000E+00  0.48573993500E+03  0.48573993501E+03  0.25500000920E-02 0.  1.
        2   -1    0    0  501    0  0.00000000000E+00  0.00000000000E+00 -0.14834119579E+04  0.14834119579E+04  0.25500000920E-02 0. -1.
    10030    2    1    2    0    0  0.00000000000E+00  0.00000000000E+00 -0.99767202290E+03  0.19691518929E+04  0.16977071927E+04 0.  0.
        1    1    3    3  502    0 -0.50926626026E+02 -0.15076787940E+03 -0.14659552919E+04  0.14745675273E+04  0.50400001928E-02 0. -1.
       -1    1    3    3    0  502  0.50926626026E+02  0.15076787940E+03  0.46828326898E+03  0.49458436563E+03  0.50400001928E-02 0.  1.
</event>
<event>
 5   0  0.1285639E-04  0.1686397E+04  0.7818609E-02  0.8769161E-01
       -2   -1    0    0    0  501  0.00000000000E+00  0.00000000000E+00  0.92222923614E+03  0.92222923615E+03  0.25500000920E-02 0.  1.
        2   -1    0    0  501    0  0.00000000000E+00  0.00000000000E+00 -0.77094072459E+03  0.77094072460E+03  0.25500000920E-02 0. -1.
    10030    2    1    2    0    0  0.00000000000E+00  0.00000000000E+00  0.15128851155E+03  0.16931699607E+04  0.16863974331E+04 0.  0.
        4    1    3    3  502    0 -0.11126309366E+03  0.80729229344E+03 -0.14174813277E+03  0.82716048570E+03  0.12699999809E+01 0.  1.
       -4    1    3    3    0  502  0.11126309366E+03 -0.80729229344E+03  0.29303664433E+03  0.86600947505E+03  0.12699999809E+01 0. -1.
</event>
<event>
 5   0  0.1333546E-04  0.1697497E+04  0.7818609E-02  0.8762793E-01
        2   -1    0    0  501    0  0.00000000000E+00  0.00000000000E+00  0.15260616503E+04  0.15260616503E+04  0.25500000920E-02 0. -1.
       -2   -1    0    0    0  501  0.00000000000E+00  0.00000000000E+00 -0.47204793518E+03  0.47204793519E+03  0.25500000920E-02 0.  1.
    10030    2    1    2    0    0  0.00000000000E+00  0.00000000000E+00  0.10540137151E+04  0.19981095854E+04  0.16974972765E+04 0.  0.
        5    1    3    3  502    0  0.60661352627E+03  0.57381909533E+03  0.34808958508E+03  0.90467495469E+03  0.46999998093E+01 0.  1.
       -5    1    3    3    0  502 -0.60661352627E+03 -0.57381909533E+03  0.70592412999E+03  0.10934346307E+04  0.46999998093E+01 0. -1.
</event>
<event>
 5   0  0.6539134E-05  0.1789163E+04  0.7818609E-02  0.8712084E-01
        1   -1    0    0  501    0  0.00000000000E+00  0.00000000000E+00  0.19537709527E+04  0.19537709527E+04  0.50400001928E-02 0. -1.
       -1   -1    0    0    0  501  0.00000000000E+00  0.00000000000E+00 -0.40960571484E+03  0.40960571487E+03  0.50400001928E-02 0.  1.
    10030    2    1    2    0    0  0.00000000000E+00  0.00000000000E+00  0.15441652379E+04  0.23633766676E+04  0.17891626508E+04 0.  0.
        2    1    3    3  502    0 -0.44144734722E+03 -0.60528556984E+03  0.12626669368E+03  0.75972999109E+03  0.25500000920E-02 0.  1.
       -2    1    3    3    0  502  0.44144734722E+03  0.60528556984E+03  0.14178985442E+04  0.16036466765E+04  0.25500000920E-02 0. -1.
</event>
<event>
 5   0  0.6539134E-05  0.1700677E+04  0.7818609E-02  0.8760978E-01
        1   -1    0    0  501    0  0.00000000000E+00  0.00000000000E+00  0.84855981132E+03  0.84855981133E+03  0.50400001928E-02 0.  1.
       -1   -1    0    0    0  501  0.00000000000E+00  0.00000000000E+00 -0.85212139838E+03  0.85212139839E+03  0.50400001928E-02 0. -1.
    10030    2    1    2    0    0  0.00000000000E+00  0.00000000000E+00 -0.35615870590E+01  0.17006812097E+04  0.17006774804E+04 0.  0.
        2    1    3    3  502    0 -0.41763227475E+03  0.33907929046E+03 -0.66032949556E+03  0.85171974548E+03  0.25500000920E-02 0. -1.
       -2    1    3    3    0  502  0.41763227475E+03 -0.33907929046E+03  0.65676790850E+03  0.84896146424E+03  0.25500000920E-02 0.  1.
</event>
<event>
 5   0  0.4720875E-05  0.1697963E+04  0.7818609E-02  0.8762527E-01
       -3   -1    0    0    0  501  0.00000000000E+00  0.00000000000E+00  0.40113476538E+03  0.40113477809E+03  0.10100000352E+00 0. -1.
        3   -1    0    0  501    0  0.00000000000E+00  0.00000000000E+00 -0.17968261501E+04  0.17968261529E+04  0.10100000352E+00 0.  1.
    10030    2    1    2    0    0  0.00000000000E+00  0.00000000000E+00 -0.13956913847E+04  0.21979609310E+04  0.16979628420E+04 0.  0.
        3    1    3    3  502    0  0.66768975681E+03  0.45939261757E+03 -0.10251142182E+04  0.13067939237E+04  0.10100000352E+00 0.  1.
       -3    1    3    3    0  502 -0.66768975681E+03 -0.45939261757E+03 -0.37057716654E+03  0.89116700735E+03  0.10100000352E+00 0. -1.
</event>
<event>
 5   0  0.4720875E-05  0.1702454E+04  0.7818609E-02  0.8759966E-01
        3   -1    0    0  501    0  0.00000000000E+00  0.00000000000E+00  0.70843804116E+03  0.70843804836E+03  0.10100000352E+00 0. -1.
       -3   -1    0    0    0  501  0.00000000000E+00  0.00000000000E+00 -0.10227955435E+04  0.10227955485E+04  0.10100000352E+00 0.  1.
    10030    2    1    2    0    0  0.00000000000E+00  0.00000000000E+00 -0.31435750230E+03  0.17312335968E+04  0.17024538547E+04 0.  0.
        1    1    3    3  502    0  0.83799617286E+03  0.14937920893E+03 -0.15111574133E+03  0.86451587671E+03  0.50400001928E-02 0.  1.
       -1    1    3    3    0  502 -0.83799617286E+03 -0.14937920893E+03 -0.16324176098E+03  0.86671772010E+03  0.50400001928E-02 0. -1.
</event>
<event>
 5   0  0.6564887E-05  0.1720307E+04  0.7818609E-02  0.8749867E-01
       -1   -1    0    0    0  501  0.00000000000E+00  0.00000000000E+00  0.83665755197E+03  0.83665755199E+03  0.50400001928E-02 0. -1.
        1   -1    0    0  501    0  0.00000000000E+00  0.00000000000E+00 -0.88430909437E+03  0.88430909439E+03  0.50400001928E-02 0.  1.
    10030    2    1    2    0    0  0.00000000000E+00  0.00000000000E+00 -0.47651542403E+02  0.17209666464E+04  0.17203068123E+04 0.  0.
        4    1    3    3  502    0  0.24652360903E+03  0.77200017834E+03  0.26456262392E+03  0.85249818770E+03  0.12699999809E+01 0. -1.
       -4    1    3    3    0  502 -0.24652360903E+03 -0.77200017834E+03 -0.31221416632E+03  0.86846845867E+03  0.12699999809E+01 0.  1.
</event>
<event>
 5   0  0.6601906E-05  0.1697491E+04  0.7818609E-02  0.8762797E-01
       -1   -1    0    0    0  501  0.00000000000E+00  0.00000000000E+00  0.66594971815E+03  0.66594971817E+03  0.50400001928E-02 0. -1.
        1   -1    0    0  501    0  0.00000000000E+00  0.00000000000E+00 -0.10817166380E+04  0.10817166381E+04  0.50400001928E-02 0.  1.
    10030    2    1    2    0    0  0.00000000000E+00  0.00000000000E+00 -0.41576691989E+03  0.17476663562E+04  0.16974909605E+04 0.  0.
        1    1    3    3  502    0 -0.65103581625E+03  0.36412238841E+03  0.20897480000E+03  0.77466329127E+03  0.50400001928E-02 0. -1.
       -1    1    3    3    0  502  0.65103581625E+03 -0.36412238841E+03 -0.62474171990E+03  0.97300306494E+03  0.50400001928E-02 0.  1.
</event>
<event>
 5   0  0.1285639E-04  0.1699245E+04  0.7818609E-02  0.8761795E-01
        2   -1    0    0  501    0  0.00000000000E+00  0.00000000000E+00  0.11729588335E+04  0.11729588335E+04  0.25500000920E-02 0.  1.
       -2   -1    0    0    0  501  0.00000000000E+00  0.00000000000E+00 -0.61541697178E+03  0.61541697178E+03  0.25500000920E-02 0. -1.
    10030    2    1    2    0    0  0.00000000000E+00  0.00000000000E+00  0.55754186169E+03  0.17883758053E+04  0.16992454482E+04 0.  0.
        4    1    3    3  502    0 -0.90619240457E+02  0.65686369352E+03  0.83783585648E+03  0.10684813026E+04  0.12699999809E+01 0.  1.
       -4    1    3    3    0  502  0.90619240457E+02 -0.65686369352E+03 -0.28029399479E+03  0.71989450270E+03  0.12699999809E+01 0. -1.
</event>
<event>
 5   0  0.1333546E-04  0.1702794E+04  0.7818609E-02  0.8759772E-01
       -2   -1    0    0    0  501  0.00000000000E+00  0.00000000000E+00  0.46568583760E+03  0.46568583761E+03  0.25500000920E-02 0.  1.
        2   -1    0    0  501    0  0.00000000000E+00  0.00000000000E+00 -0.15565791022E+04  0.15565791022E+04  0.25500000920E-02 0. -1.
    10030    2    1    2    0    0  0.00000000000E+00  0.00000000000E+00 -0.10908932646E+04  0.20222649398E+04  0.17027939899E+04 0.  0.
        5    1    3    3  502    0  0.73772984838E+03 -0.38873501134E+03 -0.74940736889E+03  0.11211573185E+04  0.46999998093E+01 0. -1.
       -5    1    3    3    0  502 -0.73772984838E+03  0.38873501134E+03 -0.34148589570E+03  0.90110762132E+03  0.46999998093E+01 0.  1.
</event>
<event>
 5   0  0.6834837E-05  0.1691971E+04  0.7818609E-02  0.8765957E-01
        1   -1    0    0  501    0  0.00000000000E+00  0.00000000000E+00  0.12365339699E+04  0.12365339699E+04  0.50400001928E-02 0.  1.
       -1   -1    0    0    0  501  0.00000000000E+00  0.00000000000E+00 -0.57878811635E+03  0.57878811638E+03  0.50400001928E-02 0. -1.
    10030    2    1    2    0    0  0.00000000000E+00  0.00000000000E+00  0.65774585356E+03  0.18153220863E+04  0.16919706467E+04 0.  0.
        5    1    3    3  502    0 -0.56637388474E+02 -0.28056973243E+03  0.11829893663E+04  0.12171331477E+04  0.46999998093E+01 0.  1.
       -5    1    3    3    0  502  0.56637388474E+02  0.28056973243E+03 -0.52524351275E+03  0.59818893856E+03  0.46999998093E+01 0. -1.
</event>
<event>
 5   0  0.1255362E-04  0.1698714E+04  0.7818609E-02  0.8762098E-01
        2   -1    0    0  501    0  0.00000000000E+00  0.00000000000E+00  0.13769389918E+04  0.13769389918E+04  0.25500000920E-02 0.  1.
       -2   -1    0    0    0  501  0.00000000000E+00  0.00000000000E+00 -0.52392091937E+03  0.52392091938E+03  0.25500000920E-02 0. -1.
    10030    2    1    2    0    0  0.00000000000E+00  0.00000000000E+00  0.85301807241E+03  0.19008599112E+04  0.16987137987E+04 0.  0.
        1    1    3    3  502    0 -0.19756058459E+02 -0.49157403846E+03  0.12012671631E+04  0.12981055944E+04  0.50400001928E-02 0.  1.
       -1    1    3    3    0  502  0.19756058459E+02  0.49157403846E+03 -0.34824909070E+03  0.60275431672E+03  0.50400001928E-02 0. -1.
</event>
<event>
 5   0  0.1269175E-04  0.1699074E+04  0.7818609E-02  0.8761893E-01
       -2   -1    0    0    0  501  0.00000000000E+00  0.00000000000E+00  0.80923904577E+03  0.80923904578E+03  0.25500000920E-02 0. -1.
        2   -1    0    0  501    0  0.00000000000E+00  0.00000000000E+00 -0.89184193692E+03  0.89184193692E+03  0.25500000920E-02 0.  1.
    10030    2    1    2    0    0  0.00000000000E+00  0.00000000000E+00 -0.82602891144E+02  0.17010809827E+04  0.16990742397E+04 0.  0.
        2    1    3    3  502    0 -0.81524886199E+03 -0.16115969421E+03 -0.21789050129E+03  0.85911548966E+03  0.25500000920E-02 0.  1.
       -2    1    3    3    0  502  0.81524886199E+03  0.16115969421E+03  0.13528761014E+03  0.84196549304E+03  0.25500000920E-02 0. -1.
</event>
<event>
 5   0  0.1269175E-04  0.1698267E+04  0.7818609E-02  0.8762354E-01
        2   -1    0    0  501    0  0.00000000000E+00  0.00000000000E+00  0.11497226543E+04  0.11497226543E+04  0.25500000920E-02 0.  1.
       -2   -1    0    0    0  501  0.00000000000E+00  0.00000000000E+00 -0.62713154589E+03  0.62713154589E+03  0.25500000920E-02 0. -1.
    10030    2    1    2    0    0  0.00000000000E+00  0.00000000000E+00  0.52259110840E+03  0.17768542002E+04  0.16982665816E+04 0.  0.
        2    1    3    3  502    0  0.19285424981E+03 -0.81039448561E+03  0.43351944832E+03  0.93907991995E+03  0.25500000920E-02 0.  1.
       -2    1    3    3    0  502 -0.19285424981E+03  0.81039448561E+03  0.89071660085E+02  0.83777428023E+03  0.25500000920E-02 0. -1.
</event>
<event>
 5   0  0.6564887E-05  0.1702237E+04  0.7818609E-02  0.8760090E-01
       -1   -1    0    0    0  501  0.00000000000E+00  0.00000000000E+00  0.15421720889E+04  0.15421720890E+04  0.50400001928E-02 0.  1.
        1   -1    0    0  501    0  0.00000000000E+00  0.00000000000E+00 -0.46972872445E+03  0.46972872448E+03  0.50400001928E-02 0. -1.
    10030    2    1    2    0    0  0.00000000000E+00  0.00000000000E+00  0.10724433645E+04  0.20119008134E+04  0.17022367970E+04 0.  0.
        4    1    3    3  502    0  0.17126810802E+03  0.41586377265E+03  0.13902534641E+04  0.14611918935E+04  0.12699999809E+01 0.  1.
       -4    1    3    3    0  502 -0.17126810802E+03 -0.41586377265E+03 -0.31781009959E+03  0.55070891997E+03  0.12699999809E+01 0. -1.
</event>
<event>
 5   0  0.6601906E-05  0.1615949E+04  0.7818609E-02  0.8810809E-01
       -1   -1    0    0    0  501  0.00000000000E+00  0.00000000000E+00  0.31128249876E+03  0.31128249880E+03  0.50400001928E-02 0. -1.
        1   -1    0    0  501    0  0.00000000000E+00  0.00000000000E+00 -0.20972037998E+04  0.20972037998E+04  0.50400001928E-02 0.  1.
    10030    2    1    2    0    0  0.00000000000E+00  0.00000000000E+00 -0.17859213011E+04  0.24084862986E+04  0.16159490577E+04 0.  0.
        1    1    3    3  502    0  0.74647099821E+03  0.16340669241E+03 -0.50172999914E+03  0.91414095760E+03  0.50400001928E-02 0.  1.
       -1    1    3    3    0  502 -0.74647099821E+03 -0.16340669241E+03 -0.12841913019E+04  0.14943453410E+04  0.50400001928E-02 0. -1.
</event>
<event>
 5   0  0.1333546E-04  0.1699130E+04  0.7818609E-02  0.8761861E-01
        2   -1    0    0  501    0  0.00000000000E+00  0.00000000000E+00  0.62275396414E+03  0.62275396414E+03  0.25500000920E-02 0. -1.
       -2   -1    0    0    0  501  0.00000000000E+00  0.00000000000E+00 -0.11589823409E+04  0.11589823409E+04  0.25500000920E-02 0.  1.
    10030    2    1    2    0    0  0.00000000000E+00  0.00000000000E+00 -0.53622837677E+03  0.17817363051E+04  0.16991301859E+04 0.  0.
        5    1    3    3  502    0  0.91754957738E+02 -0.67902104219E+03 -0.79477686437E+03  0.10493716702E+04  0.46999998093E+01 0.  1.
       -5    1    3    3    0  502 -0.91754957738E+02  0.67902104219E+03  0.25854848760E+03  0.73236463489E+03  0.46999998093E+01 0. -1.
</event>
<event>
 5   0  0.6834837E-05  0.1706068E+04  0.7818609E-02  0.8757911E-01
       -1   -1    0    0    0  501  0.00000000000E+00  0.00000000000E+00  0.94990630457E+03  0.94990630458E+03  0.50400001928E-02 0.  1.
        1   -1    0    0  501    0  0.00000000000E+00  0.00000000000E+00 -0.76604099495E+03  0.76604099497E+03  0.50400001928E-02 0. -1.
    10030    2    1    2    0    0  0.00000000000E+00  0.00000000000E+00  0.18386530962E+03  0.17159472996E+04  0.17060681941E+04 0.  0.
        5    1    3    3  502    0  0.39850549212E+03 -0.66099163961E+03  0.45725554168E+03  0.89711832847E+03  0.46999998093E+01 0.  1.
       -5    1    3    3    0  502 -0.39850549212E+03  0.66099163961E+03 -0.27339023206E+03  0.81882897108E+03  0.46999998093E+01 0. -1.
</event>
<event>
 5   0  0.1269175E-04  0.1769011E+04  0.7818609E-02  0.8722955E-01
        2   -1    0    0  501    0  0.00000000000E+00  0.00000000000E+00  0.90410797807E+03  0.90410797807E+03  0.25500000920E-02 0. -1.
       -2   -1    0    0    0  501  0.00000000000E+00  0.00000000000E+00 -0.86532757371E+03  0.86532757372E+03  0.25500000920E-02 0.  1.
    10030    2    1    2    0    0  0.00000000000E+00  0.00000000000E+00  0.38780404354E+02  0.17694355518E+04  0.17690105291E+04 0.  0.
        2    1    3    3  502    0 -0.24107662024E+03  0.20001845986E+03  0.84676742268E+03  0.90285125531E+03  0.25500000920E-02 0. -1.
       -2    1    3    3    0  502  0.24107662024E+03 -0.20001845986E+03 -0.80798701832E+03  0.86658429647E+03  0.25500000920E-02 0.  1.
</event>
<event>
 5   0  0.1285639E-04  0.1693195E+04  0.7818609E-02  0.8765255E-01
       -2   -1    0    0    0  501  0.00000000000E+00  0.00000000000E+00  0.73185107562E+03  0.73185107563E+03  0.25500000920E-02 0. -1.
        2   -1    0    0  501    0  0.00000000000E+00  0.00000000000E+00 -0.97933501848E+03  0.97933501849E+03  0.25500000920E-02 0.  1.
    10030    2    1    2    0    0  0.00000000000E+00  0.00000000000E+00 -0.24748394286E+03  0.17111860941E+04  0.16931950705E+04 0.  0.
        4    1    3    3  502    0 -0.38515256766E+03  0.74322303500E+03  0.41043244460E+01  0.83710300352E+03  0.12699999809E+01 0.  1.
       -4    1    3    3    0  502  0.38515256766E+03 -0.74322303500E+03 -0.25158826731E+03  0.87408309060E+03  0.12699999809E+01 0. -1.
</event>
<event>
 5   0  0.6564887E-05  0.1721894E+04  0.7818609E-02  0.8748975E-01
       -1   -1    0    0    0  501  0.00000000000E+00  0.00000000000E+00  0.89694690790E+03  0.89694690791E+03  0.50400001928E-02 0.  1.
        1   -1    0    0  501    0  0.00000000000E+00  0.00000000000E+00 -0.82639211927E+03  0.82639211928E+03  0.50400001928E-02 0. -1.
    10030    2    1    2    0    0  0.00000000000E+00  0.00000000000E+00  0.70554788631E+02  0.17233390272E+04  0.17218941386E+04 0.  0.
        4    1    3    3  502    0 -0.13627606380E+03  0.77011940251E+03 -0.32498741328E+03  0.84692000294E+03  0.12699999809E+01 0.  1.
       -4    1    3    3    0  502  0.13627606380E+03 -0.77011940251E+03  0.39554220191E+03  0.87641902426E+03  0.12699999809E+01 0. -1.
</event>
<event>
 5   0  0.1333546E-04  0.1697580E+04  0.7818609E-02  0.8762746E-01
       -2   -1    0    0    0  501  0.00000000000E+00  0.00000000000E+00  0.10847802785E+04  0.10847802785E+04  0.25500000920E-02 0.  1.
        2   -1    0    0  501    0  0.00000000000E+00  0.00000000000E+00 -0.66413824759E+03  0.66413824759E+03  0.25500000920E-02 0. -1.
    10030    2    1    2    0    0  0.00000000000E+00  0.00000000000E+00  0.42064203093E+03  0.17489185261E+04  0.16975795395E+04 0.  0.
        5    1    3    3  502    0  0.68587892044E+03  0.32671188637E+03 -0.17961103512E+03  0.78067455712E+03  0.46999998093E+01 0. -1.
       -5    1    3    3    0  502 -0.68587892044E+03 -0.32671188637E+03  0.60025306605E+03  0.96824396900E+03  0.46999998093E+01 0.  1.
</event>
<event>
 5   0  0.1393870E-04  0.1698259E+04  0.7818609E-02  0.8762358E-01
       -2   -1    0    0    0  501  0.00000000000E+00  0.00000000000E+00  0.81576967447E+03  0.81576967447E+03  0.25500000920E-02 0. -1.
        2   -1    0    0  501    0  0.00000000000E+00  0.00000000000E+00 -0.88385364252E+03  0.88385364252E+03  0.25500000920E-02 0.  1.
    10030    2    1    2    0    0  0.00000000000E+00  0.00000000000E+00 -0.68083968054E+02  0.16996233170E+04  0.16982591065E+04 0.  0.
        3    1    3    3  502    0 -0.40004152520E+03  0.38758407395E+03 -0.67546739164E+03  0.87550605003E+03  0.10100000352E+00 0.  1.
       -3    1    3    3    0  502  0.40004152520E+03 -0.38758407395E+03  0.60738342358E+03  0.82411726697E+03  0.10100000352E+00 0. -1.
</event>
<event>
 5   0  0.1285639E-04  0.1703894E+04  0.7818609E-02  0.8759146E-01
       -2   -1    0    0    0  501  0.00000000000E+00  0.00000000000E+00  0.34616083236E+03  0.34616083237E+03  0.25500000920E-02 0. -1.
        2   -1    0    0  501    0  0.00000000000E+00  0.00000000000E+00 -0.20967537703E+04  0.20967537703E+04  0.25500000920E-02 0.  1.
    10030    2    1    2    0    0  0.00000000000E+00  0.00000000000E+00 -0.17505929379E+04  0.24429146027E+04  0.17038943986E+04 0.  0.
        4    1    3    3  502    0 -0.44132040674E+02 -0.55816068917E+03 -0.17959231595E+04  0.18811785135E+04  0.12699999809E+01 0.  1.
       -4    1    3    3    0  502  0.44132040674E+02  0.55816068917E+03  0.45330221596E+02  0.56173608914E+03  0.12699999809E+01 0. -1.
</event>
<event>
 5   0  0.6539134E-05  0.1694652E+04  0.7818609E-02  0.8764420E-01
        1   -1    0    0  501    0  0.00000000000E+00  0.00000000000E+00  0.13985137131E+04  0.13985137131E+04  0.50400001928E-02 0.  1.
       -1   -1    0    0    0  501  0.00000000000E+00  0.00000000000E+00 -0.51337467689E+03  0.51337467692E+03  0.50400001928E-02 0. -1.
    10030    2    1    2    0    0  0.00000000000E+00  0.00000000000E+00  0.88513903616E+03  0.19118883900E+04  0.16946522069E+04 0.  0.
        2    1    3    3  502    0  0.10030135557E+03 -0.23817933323E+03 -0.46782521448E+03  0.53446252256E+03  0.25500000920E-02 0. -1.
       -2    1    3    3    0  502 -0.10030135557E+03  0.23817933323E+03  0.13529642506E+04  0.13774258674E+04  0.25500000920E-02 0.  1.
</event>
<event>
 5   0  0.1333546E-04  0.1771053E+04  0.7818609E-02  0.8721846E-01
       -2   -1    0    0    0  501  0.00000000000E+00  0.00000000000E+00  0.52755141607E+03  0.52755141607E+03  0.25500000920E-02 0. -1.
        2   -1    0    0  501    0  0.00000000000E+00  0.00000000000E+00 -0.14864096451E+04  0.14864096451E+04  0.25500000920E-02 0.  1.
    10030    2    1    2    0    0  0.00000000000E+00  0.00000000000E+00 -0.95885822903E+03  0.20139610612E+04  0.17710533737E+04 0.  0.
        5    1    3    3  502    0  0.47571204160E+03  0.23436350184E+03 -0.12858529535E+04  0.13909234722E+04  0.46999998093E+01 0.  1.
       -5    1    3    3    0  502 -0.47571204160E+03 -0.23436350184E+03  0.32699472442E+03  0.62303758901E+03  0.46999998093E+01 0. -1.
</event>
<event>
 5   0  0.6834837E-05  0.1704618E+04  0.7818609E-02  0.8758735E-01
       -1   -1    0    0    0  501  0.00000000000E+00  0.00000000000E+00  0.45374785802E+03  0.45374785805E+03  0.50400001928E-02 0. -1.
        1   -1    0    0  501    0  0.00000000000E+00  0.00000000000E+00 -0.16009569180E+04  0.16009569180E+04  0.50400001928E-02 0.  1.
    10030    2    1    2    0    0  0.00000000000E+00  0.00000000000E+00 -0.11472090600E+04  0.20547047760E+04  0.17046181653E+04 0.  0.
        5    1    3    3  502    0 -0.53506800330E+03 -0.38904060945E+03 -0.12213279051E+04  0.13889975903E+04  0.46999998093E+01 0.  1.
       -5    1    3    3    0  502  0.53506800330E+03  0.38904060945E+03  0.74118845167E+02  0.66570718575E+03  0.46999998093E+01 0. -1.
</event>
<event>
 5   0  0.1285639E-04  0.1697091E+04  0.7818609E-02  0.8763025E-01
       -2   -1    0    0    0  501  0.00000000000E+00  0.00000000000E+00  0.70119105347E+03  0.70119105347E+03  0.25500000920E-02 0.  1.
        2   -1    0    0  501    0  0.00000000000E+00  0.00000000000E+00 -0.10268665592E+04  0.10268665592E+04  0.25500000920E-02 0. -1.
    10030    2    1    2    0    0  0.00000000000E+00  0.00000000000E+00 -0.32567550571E+03  0.17280576126E+04  0.16970912107E+04 0.  0.
        4    1    3    3  502    0  0.66421497793E+03  0.72083457004E+02 -0.69549903775E+03  0.96441593003E+03  0.12699999809E+01 0. -1.
       -4    1    3    3    0  502 -0.66421497793E+03 -0.72083457004E+02  0.36982353205E+03  0.76364168262E+03  0.12699999809E+01 0.  1.
</event>
<event>
 5   0  0.6601906E-05  0.1698351E+04  0.7818609E-02  0.8762305E-01
       -1   -1    0    0    0  501  0.00000000000E+00  0.00000000000E+00  0.12365590080E+04  0.12365590081E+04  0.50400001928E-02 0. -1.
        1   -1    0    0  501    0  0.00000000000E+00  0.00000000000E+00 -0.58314975319E+03  0.58314975321E+03  0.50400001928E-02 0.  1.
    10030    2    1    2    0    0  0.00000000000E+00  0.00000000000E+00  0.65340925486E+03  0.18197087613E+04  0.16983510596E+04 0.  0.
        1    1    3    3  502    0  0.60013441422E+03 -0.69910771725E+02  0.96604196270E+03  0.11394234967E+04  0.50400001928E-02 0. -1.
       -1    1    3    3    0  502 -0.60013441422E+03  0.69910771725E+02 -0.31263270784E+03  0.68028526456E+03  0.50400001928E-02 0.  1.
</event>
<event>
 5   0  0.1333546E-04  0.1713449E+04  0.7818609E-02  0.8753731E-01
        2   -1    0    0  501    0  0.00000000000E+00  0.00000000000E+00  0.84481605308E+03  0.84481605309E+03  0.25500000920E-02 0. -1.
       -2   -1    0    0    0  501  0.00000000000E+00  0.00000000000E+00 -0.86880119983E+03  0.86880119984E+03  0.25500000920E-02 0.  1.
    10030    2    1    2    0    0  0.00000000000E+00  0.00000000000E+00 -0.23985146752E+02  0.17136172529E+04  0.17134493871E+04 0.  0.
        5    1    3    3  502    0  0.15855898400E+02 -0.93751941568E+02  0.83950981679E+03  0.84489032338E+03  0.46999998093E+01 0. -1.
       -5    1    3    3    0  502 -0.15855898400E+02  0.93751941568E+02 -0.86349496354E+03  0.86872692955E+03  0.46999998093E+01 0.  1.
</event>
<event>
 5   0  0.6834837E-05  0.1701430E+04  0.7818609E-02  0.8760549E-01
       -1   -1    0    0    0  501  0.00000000000E+00  0.00000000000E+00  0.12908479912E+04  0.12908479912E+04  0.50400001928E-02 0.  1.
        1   -1    0    0  501    0  0.00000000000E+00  0.00000000000E+00 -0.56065182676E+03  0.56065182678E+03  0.50400001928E-02 0. -1.
    10030    2    1    2    0    0  0.00000000000E+00  0.00000000000E+00  0.73019616441E+03  0.18514998180E+04  0.17014303211E+04 0.  0.
        5    1    3    3  502    0  0.69868081074E+03 -0.17736746301E+03  0.85669577628E+03  0.11196266500E+04  0.46999998093E+01 0. -1.
       -5    1    3    3    0  502 -0.69868081074E+03  0.17736746301E+03 -0.12649961187E+03  0.73187316799E+03  0.46999998093E+01 0.  1.
</event>
<event>
 5   0  0.6834837E-05  0.1717453E+04  0.7818609E-02  0.8751473E-01
        1   -1    0    0  501    0  0.00000000000E+00  0.00000000000E+00  0.11916086022E+04  0.11916086023E+04  0.50400001928E-02 0. -1.
       -1   -1    0    0    0  501  0.00000000000E+00  0.00000000000E+00 -0.61883653550E+03  0.61883653552E+03  0.50400001928E-02 0.  1.
    10030    2    1    2    0    0  0.00000000000E+00  0.00000000000E+00  0.57277206675E+03  0.18104451378E+04  0.17174526941E+04 0.  0.
        5    1    3    3  502    0  0.13855661105E+03 -0.35020332429E+03 -0.52711698698E+03  0.64785392703E+03  0.46999998093E+01 0.  1.
       -5    1    3    3    0  502 -0.13855661105E+03  0.35020332429E+03  0.10998890537E+04  0.11625912108E+04  0.46999998093E+01 0. -1.
</event>
<event>
 5   0  0.1333546E-04  0.1703420E+04  0.7818609E-02  0.8759416E-01
        2   -1    0    0  501    0  0.00000000000E+00  0.00000000000E+00  0.10453820243E+04  0.10453820243E+04  0.25500000920E-02 0.  1.
       -2   -1    0    0    0  501  0.00000000000E+00  0.00000000000E+00 -0.69391849207E+03  0.69391849208E+03  0.25500000920E-02 0. -1.
    10030    2    1    2    0    0  0.00000000000E+00  0.00000000000E+00  0.35146353222E+03  0.17393005164E+04  0.17034199928E+04 0.  0.
        5    1    3    3  502    0 -0.75044072925E+03  0.39356448669E+03  0.26317164743E+03  0.88731938969E+03  0.46999998093E+01 0. -1.
       -5    1    3    3    0  502  0.75044072925E+03 -0.39356448669E+03  0.88291884794E+02  0.85198112669E+03  0.46999998093E+01 0.  1.
</event>
<event>
 5   0  0.6564887E-05  0.1708773E+04  0.7818609E-02  0.8756377E-01
        1   -1    0    0  501    0  0.00000000000E+00  0.00000000000E+00  0.79347940284E+03  0.79347940285E+03  0.50400001928E-02 0.  1.
       -1   -1    0    0    0  501  0.00000000000E+00  0.00000000000E+00 -0.91996851051E+03  0.91996851052E+03  0.50400001928E-02 0. -1.
    10030    2    1    2    0    0  0.00000000000E+00  0.00000000000E+00 -0.12648910767E+03  0.17134479134E+04  0.17087727343E+04 0.  0.
        4    1    3    3  502    0  0.26467156147E+03  0.50399127380E+02 -0.87625466987E+03  0.91674149402E+03  0.12699999809E+01 0. -1.
       -4    1    3    3    0  502 -0.26467156147E+03 -0.50399127380E+02  0.74976556220E+03  0.79670641936E+03  0.12699999809E+01 0.  1.
</event>
<event>
 5   0  0.6564887E-05  0.1703558E+04  0.7818609E-02  0.8759338E-01
        1   -1    0    0  501    0  0.00000000000E+00  0.00000000000E+00  0.12322861721E+04  0.12322861721E+04  0.50400001928E-02 0.  1.
       -1   -1    0    0    0  501  0.00000000000E+00  0.00000000000E+00 -0.58876506192E+03  0.58876506194E+03  0.50400001928E-02 0. -1.
    10030    2    1    2    0    0  0.00000000000E+00  0.00000000000E+00  0.64352111021E+03  0.18210512341E+04  0.17035575065E+04 0.  0.
        4    1    3    3  502    0  0.72604379704E+03  0.30574996832E+03 -0.24464818155E+02  0.78817687011E+03  0.12699999809E+01 0. -1.
       -4    1    3    3    0  502 -0.72604379704E+03 -0.30574996832E+03  0.66798592837E+03  0.10328743640E+04  0.12699999809E+01 0.  1.
</event>
<event>
 5   0  0.6834837E-05  0.1699839E+04  0.7818609E-02  0.8761456E-01
       -1   -1    0    0    0  501  0.00000000000E+00  0.00000000000E+00  0.49946013546E+03  0.49946013549E+03  0.50400001928E-02 0.  1.
        1   -1    0    0  501    0  0.00000000000E+00  0.00000000000E+00 -0.14462884380E+04  0.14462884380E+04  0.50400001928E-02 0. -1.
    10030    2    1    2    0    0  0.00000000000E+00  0.00000000000E+00 -0.94682830255E+03  0.19457485735E+04  0.16998393091E+04 0.  0.
        5    1    3    3  502    0  0.15846598048E+03  0.86336720296E+02 -0.14240908288E+04  0.14354867728E+04  0.46999998093E+01 0. -1.
       -5    1    3    3    0  502 -0.15846598048E+03 -0.86336720296E+02  0.47726252627E+03  0.51026180067E+03  0.46999998093E+01 0.  1.
</event>
<event>
 5   0  0.6564887E-05  0.1710586E+04  0.7818609E-02  0.8755350E-01
        1   -1    0    0  501    0  0.00000000000E+00  0.00000000000E+00  0.20357983440E+04  0.20357983441E+04  0.50400001928E-02 0.  1.
       -1   -1    0    0    0  501  0.00000000000E+00  0.00000000000E+00 -0.35933126794E+03  0.35933126797E+03  0.50400001928E-02 0. -1.
    10030    2    1    2    0    0  0.00000000000E+00  0.00000000000E+00  0.16764670761E+04  0.23951296120E+04  0.17105858649E+04 0.  0.
        4    1    3    3  502    0  0.18713291793E+03  0.50016558873E+03 -0.97208895026E+02  0.54280339654E+03  0.12699999809E+01 0. -1.
       -4    1    3    3    0  502 -0.18713291793E+03 -0.50016558873E+03  0.17736759711E+04  0.18523262155E+04  0.12699999809E+01 0.  1.
</event>
<event>
 5   0  0.6564887E-05  0.1691218E+04  0.7818609E-02  0.8766389E-01
       -1   -1    0    0    0  501  0.00000000000E+00  0.00000000000E+00  0.53833551417E+03  0.53833551420E+03  0.50400001928E-02 0.  1.
        1   -1    0    0  501    0  0.00000000000E+00  0.00000000000E+00 -0.13282698124E+04  0.13282698124E+04  0.50400001928E-02 0. -1.
    10030    2    1    2    0    0  0.00000000000E+00  0.00000000000E+00 -0.78993429822E+03  0.18666053266E+04  0.16912182738E+04 0.  0.
        4    1    3    3  502    0 -0.43913342796E+03  0.47457315383E+03  0.20652181812E+03  0.67875674594E+03  0.12699999809E+01 0.  1.
       -4    1    3    3    0  502  0.43913342796E+03 -0.47457315383E+03 -0.99645611634E+03  0.11878485807E+04  0.12699999809E+01 0. -1.
</event>
<event>
 5   0  0.6564887E-05  0.1696336E+04  0.7818609E-02  0.8763457E-01
       -1   -1    0    0    0  501  0.00000000000E+00  0.00000000000E+00  0.56038500945E+03  0.56038500947E+03  0.50400001928E-02 0. -1.
        1   -1    0    0  501    0  0.00000000000E+00  0.00000000000E+00 -0.12837405972E+04  0.12837405972E+04  0.50400001928E-02 0.  1.
    10030    2    1    2    0    0  0.00000000000E+00  0.00000000000E+00 -0.72335558775E+03  0.18441256067E+04  0.16963360360E+04 0.  0.
        4    1    3    3  502    0 -0.10917101108E+03  0.72273646611E+03 -0.82941996795E+03  0.11055339910E+04  0.12699999809E+01 0.  1.
       -4    1    3    3    0  502  0.10917101108E+03 -0.72273646611E+03  0.10606438020E+03  0.73859161568E+03  0.12699999809E+01 0. -1.
</event>
<event>
 5   0  0.6601906E-05  0.1708084E+04  0.7818609E-02  0.8756767E-01
       -1   -1    0    0    0  501  0.00000000000E+00  0.00000000000E+00  0.83865531751E+03  0.83865531753E+03  0.50400001928E-02 0. -1.
        1   -1    0    0  501    0  0.00000000000E+00  0.00000000000E+00 -0.86971071794E+03  0.86971071796E+03  0.50400001928E-02 0.  1.
    10030    2    1    2    0    0  0.00000000000E+00  0.00000000000E+00 -0.31055400430E+02  0.17083660355E+04  0.17080837431E+04 0.  0.
        1    1    3    3  502    0 -0.22148810186E+03  0.77853000102E+03  0.25695369650E+03  0.84922973565E+03  0.50400001928E-02 0.  1.
       -1    1    3    3    0  502  0.22148810186E+03 -0.77853000102E+03 -0.28800909693E+03  0.85913629983E+03  0.50400001928E-02 0. -1.
</event>
<event>
 5   0  0.1269175E-04  0.1698050E+04  0.7818609E-02  0.8762478E-01
       -2   -1    0    0    0  501  0.00000000000E+00  0.00000000000E+00  0.24881133389E+03  0.24881133391E+03  0.25500000920E-02 0.  1.
        2   -1    0    0  501    0  0.00000000000E+00  0.00000000000E+00 -0.28971473809E+04  0.28971473809E+04  0.25500000920E-02 0. -1.
    10030    2    1    2    0    0  0.00000000000E+00  0.00000000000E+00 -0.26483360470E+04  0.31459587148E+04  0.16980495921E+04 0.  0.
        2    1    3    3  502    0  0.17245410074E+03  0.48881931604E+03 -0.78369151154E+02  0.52423893833E+03  0.25500000920E-02 0.  1.
       -2    1    3    3    0  502 -0.17245410074E+03 -0.48881931604E+03 -0.25699668958E+04  0.26217197765E+04  0.25500000920E-02 0. -1.
</event>
<event>
 5   0  0.6601906E-05  0.1698644E+04  0.7818609E-02  0.8762138E-01
       -1   -1    0    0    0  501  0.00000000000E+00  0.00000000000E+00  0.86476270661E+03  0.86476270662E+03  0.50400001928E-02 0.  1.
        1   -1    0    0  501    0  0.00000000000E+00  0.00000000000E+00 -0.83415674492E+03  0.83415674494E+03  0.50400001928E-02 0. -1.
    10030    2    1    2    0    0  0.00000000000E+00  0.00000000000E+00  0.30605961686E+02  0.16989194516E+04  0.16986437466E+04 0.  0.
        1    1    3    3  502    0  0.17568013068E+03  0.79248639789E+03  0.26524241182E+03  0.85396237400E+03  0.50400001928E-02 0. -1.
       -1    1    3    3    0  502 -0.17568013068E+03 -0.79248639789E+03 -0.23463645014E+03  0.84495707756E+03  0.50400001928E-02 0.  1.
</event>
<event>
 5   0  0.6601906E-05  0.1706546E+04  0.7818609E-02  0.8757640E-01
        1   -1    0    0  501    0  0.00000000000E+00  0.00000000000E+00  0.13546192749E+04  0.13546192750E+04  0.50400001928E-02 0. -1.
       -1   -1    0    0    0  501  0.00000000000E+00  0.00000000000E+00 -0.53747548369E+03  0.53747548371E+03  0.50400001928E-02 0.  1.
    10030    2    1    2    0    0  0.00000000000E+00  0.00000000000E+00  0.81714379125E+03  0.18920947587E+04  0.17065458096E+04 0.  0.
        1    1    3    3  502    0  0.47759492933E+03 -0.67708367247E+03  0.18261046892E+03  0.84846084142E+03  0.50400001928E-02 0.  1.
       -1    1    3    3    0  502 -0.47759492933E+03  0.67708367247E+03  0.63453332234E+03  0.10436339172E+04  0.50400001928E-02 0. -1.
</event>
<event>
 5   0  0.1333546E-04  0.1701533E+04  0.7818609E-02  0.8760491E-01
       -2   -1    0    0    0  501  0.00000000000E+00  0.00000000000E+00  0.61914701105E+03  0.61914701105E+03  0.25500000920E-02 0.  1.
        2   -1    0    0  501    0  0.00000000000E+00  0.00000000000E+00 -0.11690330674E+04  0.11690330674E+04  0.25500000920E-02 0. -1.
    10030    2    1    2    0    0  0.00000000000E+00  0.00000000000E+00 -0.54988605637E+03  0.17881800785E+04  0.17015326380E+04 0.  0.
        5    1    3    3  502    0 -0.95464153397E+02  0.31953542997E+02 -0.11627378988E+04  0.11670972303E+04  0.46999998093E+01 0. -1.
       -5    1    3    3    0  502  0.95464153397E+02 -0.31953542997E+02  0.61285184248E+03  0.62108284820E+03  0.46999998093E+01 0.  1.
</event>
<event>
 5   0  0.4720875E-05  0.1705871E+04  0.7818609E-02  0.8758023E-01
        4   -1    0    0  501    0  0.00000000000E+00  0.00000000000E+00  0.76752009782E+03  0.76752114854E+03  0.12699999809E+01 0.  1.
       -4   -1    0    0    0  501  0.00000000000E+00  0.00000000000E+00 -0.94785429461E+03  0.94785514543E+03  0.12699999809E+01 0. -1.
    10030    2    1    2    0    0  0.00000000000E+00  0.00000000000E+00 -0.18033419680E+03  0.17153762940E+04  0.17058708648E+04 0.  0.
        5    1    3    3  502    0 -0.79460693143E+03  0.29450050285E+03  0.70465123138E+01  0.84746826784E+03  0.46999998093E+01 0.  1.
       -5    1    3    3    0  502  0.79460693143E+03 -0.29450050285E+03 -0.18738070911E+03  0.86790802612E+03  0.46999998093E+01 0. -1.
</event>
<event>
 5   0  0.6615842E-05  0.1693975E+04  0.7818609E-02  0.8764808E-01
       -1   -1    0    0    0  501  0.00000000000E+00  0.00000000000E+00  0.71915700218E+03  0.71915700220E+03  0.50400001928E-02 0.  1.
        1   -1    0    0  501    0  0.00000000000E+00  0.00000000000E+00 -0.99754003455E+03  0.99754003456E+03  0.50400001928E-02 0. -1.
    10030    2    1    2    0    0  0.00000000000E+00  0.00000000000E+00 -0.27838303236E+03  0.17166970368E+04  0.16939750893E+04 0.  0.
        3    1    3    3  502    0  0.45792599104E+03 -0.45871406987E+03 -0.69173241390E+03  0.94794965785E+03  0.10100000352E+00 0. -1.
       -3    1    3    3    0  502 -0.45792599104E+03  0.45871406987E+03  0.41334938154E+03  0.76874737891E+03  0.10100000352E+00 0.  1.
</event>
<event>
 5   0  0.6564887E-05  0.1699323E+04  0.7818609E-02  0.8761750E-01
       -1   -1    0    0    0  501  0.00000000000E+00  0.00000000000E+00  0.62031788765E+03  0.62031788767E+03  0.50400001928E-02 0.  1.
        1   -1    0    0  501    0  0.00000000000E+00  0.00000000000E+00 -0.11637982317E+04  0.11637982317E+04  0.50400001928E-02 0. -1.
    10030    2    1    2    0    0  0.00000000000E+00  0.00000000000E+00 -0.54348034406E+03  0.17841161194E+04  0.16993232309E+04 0.  0.
        4    1    3    3  502    0  0.59404774749E+03 -0.30612509184E+03 -0.82262953391E+03  0.10598708700E+04  0.12699999809E+01 0. -1.
       -4    1    3    3    0  502 -0.59404774749E+03  0.30612509184E+03  0.27914918985E+03  0.72424524938E+03  0.12699999809E+01 0.  1.
</event>
<event>
 5   0  0.6564887E-05  0.1641499E+04  0.7818609E-02  0.8795452E-01
        1   -1    0    0  501    0  0.00000000000E+00  0.00000000000E+00  0.24831197516E+04  0.24831197516E+04  0.50400001928E-02 0.  1.
       -1   -1    0    0    0  501  0.00000000000E+00  0.00000000000E+00 -0.27128351562E+03  0.27128351567E+03  0.50400001928E-02 0. -1.
    10030    2    1    2    0    0  0.00000000000E+00  0.00000000000E+00  0.22118362360E+04  0.27544032673E+04  0.16414986518E+04 0.  0.
        4    1    3    3  502    0 -0.45095052527E+03  0.66824644453E+03  0.13643389124E+04  0.15847182613E+04  0.12699999809E+01 0.  1.
       -4    1    3    3    0  502  0.45095052527E+03 -0.66824644453E+03  0.84749732360E+03  0.11696850060E+04  0.12699999809E+01 0. -1.
</event>
<event>
 5   0  0.1285639E-04  0.1701668E+04  0.7818609E-02  0.8760413E-01
        2   -1    0    0  501    0  0.00000000000E+00  0.00000000000E+00  0.14679415396E+04  0.14679415396E+04  0.25500000920E-02 0.  1.
       -2   -1    0    0    0  501  0.00000000000E+00  0.00000000000E+00 -0.49315232237E+03  0.49315232237E+03  0.25500000920E-02 0. -1.
    10030    2    1    2    0    0  0.00000000000E+00  0.00000000000E+00  0.97478921719E+03  0.19610938619E+04  0.17016683335E+04 0.  0.
        4    1    3    3  502    0  0.46454748743E+03  0.13113136210E+03 -0.32007774197E+03  0.57918147071E+03  0.12699999809E+01 0. -1.
       -4    1    3    3    0  502 -0.46454748743E+03 -0.13113136210E+03  0.12948669592E+04  0.13819123912E+04  0.12699999809E+01 0.  1.
</event>
<event>
 5   0  0.4720875E-05  0.1745212E+04  0.7818609E-02  0.8735990E-01
       -3   -1    0    0    0  501  0.00000000000E+00  0.00000000000E+00  0.14119212243E+04  0.14119212279E+04  0.10100000352E+00 0. -1.
        3   -1    0    0  501    0  0.00000000000E+00  0.00000000000E+00 -0.53929470513E+03  0.53929471459E+03  0.10100000352E+00 0.  1.
    10030    2    1    2    0    0  0.00000000000E+00  0.00000000000E+00  0.87262651912E+03  0.19512159425E+04  0.17452124834E+04 0.  0.
        3    1    3    3  502    0  0.21490098702E+03  0.39631510632E+03 -0.39900010503E+03  0.60203753350E+03  0.10100000352E+00 0.  1.
       -3    1    3    3    0  502 -0.21490098702E+03 -0.39631510632E+03  0.12716266242E+04  0.13491784090E+04  0.10100000352E+00 0. -1.
</event>
<event>
 5   0  0.6615842E-05  0.1696141E+04  0.7818609E-02  0.8763569E-01
       -1   -1    0    0    0  501  0.00000000000E+00  0.00000000000E+00  0.47605292606E+03  0.47605292608E+03  0.50400001928E-02 0.  1.
        1   -1    0    0  501    0  0.00000000000E+00  0.00000000000E+00 -0.15108052989E+04  0.15108052990E+04  0.50400001928E-02 0. -1.
    10030    2    1    2    0    0  0.00000000000E+00  0.00000000000E+00 -0.10347523729E+04  0.19868582250E+04  0.16961406584E+04 0.  0.
        3    1    3    3  502    0 -0.18431043369E+03  0.46230400089E+02  0.45079497667E+03  0.48920722302E+03  0.10100000352E+00 0.  1.
       -3    1    3    3    0  502  0.18431043369E+03 -0.46230400089E+02 -0.14855473496E+04  0.14976510020E+04  0.10100000352E+00 0. -1.
</event>
<event>
 5   0  0.1269175E-04  0.1702200E+04  0.7818609E-02  0.8760111E-01
        2   -1    0    0  501    0  0.00000000000E+00  0.00000000000E+00  0.13031908845E+04  0.13031908845E+04  0.25500000920E-02 0.  1.
       -2   -1    0    0    0  501  0.00000000000E+00  0.00000000000E+00 -0.55584437939E+03  0.55584437940E+03  0.25500000920E-02 0. -1.
    10030    2    1    2    0    0  0.00000000000E+00  0.00000000000E+00  0.74734650514E+03  0.18590352639E+04  0.17022001392E+04 0.  0.
        2    1    3    3  502    0  0.25331029418E+03  0.66532800135E+03  0.88306327641E+03  0.11342963478E+04  0.25500000920E-02 0.  1.
       -2    1    3    3    0  502 -0.25331029418E+03 -0.66532800135E+03 -0.13571677127E+03  0.72473891611E+03  0.25500000920E-02 0. -1.
</event>
<event>
 5   0  0.1333546E-04  0.1702057E+04  0.7818609E-02  0.8760192E-01
        2   -1    0    0  501    0  0.00000000000E+00  0.00000000000E+00  0.63520649977E+03  0.63520649978E+03  0.25500000920E-02 0. -1.
       -2   -1    0    0    0  501  0.00000000000E+00  0.00000000000E+00 -0.11401793015E+04  0.11401793015E+04  0.25500000920E-02 0.  1.
    10030    2    1    2    0    0  0.00000000000E+00  0.00000000000E+00 -0.50497280173E+03  0.17753858013E+04  0.17020567596E+04 0.  0.
        5    1    3    3  502    0  0.23643258654E+03 -0.75488108571E+03 -0.57982392421E+03  0.98079747890E+03  0.46999998093E+01 0. -1.
       -5    1    3    3    0  502 -0.23643258654E+03  0.75488108571E+03  0.74851122479E+02  0.79458832238E+03  0.46999998093E+01 0.  1.
</event>
<event>
 5   0  0.1393870E-04  0.1648673E+04  0.7818609E-02  0.8791192E-01
       -2   -1    0    0    0  501  0.00000000000E+00  0.00000000000E+00  0.37944898777E+03  0.37944898778E+03  0.25500000920E-02 0. -1.
        2   -1    0    0  501    0  0.00000000000E+00  0.00000000000E+00 -0.17908363841E+04  0.17908363841E+04  0.25500000920E-02 0.  1.
    10030    2    1    2    0    0  0.00000000000E+00  0.00000000000E+00 -0.14113873963E+04  0.21702853718E+04  0.16486734707E+04 0.  0.
        3    1    3    3  502    0  0.88979944387E+02 -0.67393754627E+03 -0.91884017988E+02  0.68596787807E+03  0.10100000352E+00 0. -1.
       -3    1    3    3    0  502 -0.88979944387E+02  0.67393754627E+03 -0.13195033783E+04  0.14843174938E+04  0.10100000352E+00 0.  1.
</event>
<event>
 5   0  0.6539134E-05  0.1695997E+04  0.7818609E-02  0.8763650E-01
       -1   -1    0    0    0  501  0.00000000000E+00  0.00000000000E+00  0.89072181643E+03  0.89072181644E+03  0.50400001928E-02 0. -1.
        1   -1    0    0  501    0  0.00000000000E+00  0.00000000000E+00 -0.80732487237E+03  0.80732487239E+03  0.50400001928E-02 0.  1.
    10030    2    1    2    0    0  0.00000000000E+00  0.00000000000E+00  0.83396944056E+02  0.16980466888E+04  0.16959974962E+04 0.  0.
        2    1    3    3  502    0 -0.54043849743E+02 -0.49546002964E+03  0.72860358561E+03  0.88275962959E+03  0.25500000920E-02 0. -1.
       -2    1    3    3    0  502  0.54043849743E+02  0.49546002964E+03 -0.64520664155E+03  0.81528705925E+03  0.25500000920E-02 0.  1.
</event>
<event>
 5   0  0.1393870E-04  0.1699820E+04  0.7818609E-02  0.8761467E-01
       -2   -1    0    0    0  501  0.00000000000E+00  0.00000000000E+00  0.20028979044E+04  0.20028979044E+04  0.25500000920E-02 0.  1.
        2   -1    0    0  501    0  0.00000000000E+00  0.00000000000E+00 -0.36065091425E+03  0.36065091425E+03  0.25500000920E-02 0. -1.
    10030    2    1    2    0    0  0.00000000000E+00  0.00000000000E+00  0.16422469902E+04  0.23635488187E+04  0.16998199439E+04 0.  0.
        3    1    3    3  502    0  0.50724584029E+03  0.29446530926E+03  0.16763912357E+04  0.17760337120E+04  0.10100000352E+00 0.  1.
       -3    1    3    3    0  502 -0.50724584029E+03 -0.29446530926E+03 -0.34144245531E+02  0.58751510666E+03  0.10100000352E+00 0. -1.
</event>
<event>
 5   0  0.6834837E-05  0.1676813E+04  0.7818609E-02  0.8774700E-01
        1   -1    0    0  501    0  0.00000000000E+00  0.00000000000E+00  0.12309740421E+04  0.12309740421E+04  0.50400001928E-02 0.  1.
       -1   -1    0    0    0  501  0.00000000000E+00  0.00000000000E+00 -0.57103203929E+03  0.57103203931E+03  0.50400001928E-02 0. -1.
    10030    2    1    2    0    0  0.00000000000E+00  0.00000000000E+00  0.65994200283E+03  0.18020060814E+04  0.16768131889E+04 0.  0.
        5    1    3    3  502    0 -0.59647030555E+03 -0.58537731554E+03  0.40174115925E+03  0.92728715940E+03  0.46999998093E+01 0. -1.
       -5    1    3    3    0  502  0.59647030555E+03  0.58537731554E+03  0.25820084358E+03  0.87471892204E+03  0.46999998093E+01 0.  1.
</event>
<event>
 5   0  0.6615842E-05  0.1697653E+04  0.7818609E-02  0.8762704E-01
       -1   -1    0    0    0  501  0.00000000000E+00  0.00000000000E+00  0.97411237149E+03  0.97411237150E+03  0.50400001928E-02 0.  1.
        1   -1    0    0  501    0  0.00000000000E+00  0.00000000000E+00 -0.73965390446E+03  0.73965390447E+03  0.50400001928E-02 0. -1.
    10030    2    1    2    0    0  0.00000000000E+00  0.00000000000E+00  0.23445846703E+03  0.17137662760E+04  0.16976525192E+04 0.  0.
        3    1    3    3  502    0  0.84089425294E+03  0.88886927617E+02  0.19210861091E+03  0.86712730272E+03  0.10100000352E+00 0.  1.
       -3    1    3    3    0  502 -0.84089425294E+03 -0.88886927617E+02  0.42349856116E+02  0.84663897326E+03  0.10100000352E+00 0. -1.
</event>
<event>
 5   0  0.6564887E-05  0.1698474E+04  0.7818609E-02  0.8762235E-01
        1   -1    0    0  501    0  0.00000000000E+00  0.00000000000E+00  0.70164576475E+03  0.70164576477E+03  0.50400001928E-02 0. -1.
       -1   -1    0    0    0  501  0.00000000000E+00  0.00000000000E+00 -0.10278737331E+04  0.10278737331E+04  0.50400001928E-02 0.  1.
    10030    2    1    2    0    0  0.00000000000E+00  0.00000000000E+00 -0.32622796836E+03  0.17295194979E+04  0.16984737285E+04 0.  0.
        4    1    3    3  502    0 -0.44150405569E+03  0.56445491907E+03  0.30092001298E+03  0.77723204641E+03  0.12699999809E+01 0. -1.
       -4    1    3    3    0  502  0.44150405569E+03 -0.56445491907E+03 -0.62714798134E+03  0.95228745148E+03  0.12699999809E+01 0.  1.
</event>
<event>
 5   0  0.1285639E-04  0.1702361E+04  0.7818609E-02  0.8760019E-01
       -2   -1    0    0    0  501  0.00000000000E+00  0.00000000000E+00  0.13065827215E+04  0.13065827215E+04  0.25500000920E-02 0.  1.
        2   -1    0    0  501    0  0.00000000000E+00  0.00000000000E+00 -0.55450648520E+03  0.55450648521E+03  0.25500000920E-02 0. -1.
    10030    2    1    2    0    0  0.00000000000E+00  0.00000000000E+00  0.75207623627E+03  0.18610892067E+04  0.17023614099E+04 0.  0.
        4    1    3    3  502    0 -0.61135174727E+03  0.50563579303E+03  0.38922134544E+02  0.79431420707E+03  0.12699999809E+01 0. -1.
       -4    1    3    3    0  502  0.61135174727E+03 -0.50563579303E+03  0.71315410173E+03  0.10667749996E+04  0.12699999809E+01 0.  1.
</event>
<event>
 5   0  0.6564887E-05  0.1692068E+04  0.7818609E-02  0.8765902E-01
        1   -1    0    0  501    0  0.00000000000E+00  0.00000000000E+00  0.57364008314E+03  0.57364008316E+03  0.50400001928E-02 0. -1.
       -1   -1    0    0    0  501  0.00000000000E+00  0.00000000000E+00 -0.12477739031E+04  0.12477739031E+04  0.50400001928E-02 0.  1.
    10030    2    1    2    0    0  0.00000000000E+00  0.00000000000E+00 -0.67413381997E+03  0.18214139863E+04  0.16920675229E+04 0.  0.
        4    1    3    3  502    0 -0.14952943220E+03 -0.74591375181E+03 -0.73553275281E+03  0.10581854372E+04  0.12699999809E+01 0.  1.
       -4    1    3    3    0  502  0.14952943220E+03  0.74591375181E+03  0.61398932837E+02  0.76322854905E+03  0.12699999809E+01 0. -1.
</event>
<event>
 5   0  0.4720875E-05  0.1697700E+04  0.7818609E-02  0.8762677E-01
       -4   -1    0    0    0  501  0.00000000000E+00  0.00000000000E+00  0.42100577823E+03  0.42100769376E+03  0.12699999809E+01 0.  1.
        4   -1    0    0  501    0  0.00000000000E+00  0.00000000000E+00 -0.17114820400E+04  0.17114825112E+04  0.12699999809E+01 0. -1.
    10030    2    1    2    0    0  0.00000000000E+00  0.00000000000E+00 -0.12904762618E+04  0.21324902050E+04  0.16977000595E+04 0.  0.
        4    1    3    3  502    0 -0.76375811279E+03 -0.36632202742E+03 -0.71434079738E+03  0.11080625751E+04  0.12699999809E+01 0.  1.
       -4    1    3    3    0  502  0.76375811279E+03  0.36632202742E+03 -0.57613546442E+03  0.10244276299E+04  0.12699999809E+01 0. -1.
</event>
<event>
 5   0  0.6615842E-05  0.1709992E+04  0.7818609E-02  0.8755686E-01
       -1   -1    0    0    0  501  0.00000000000E+00  0.00000000000E+00  0.39910068175E+03  0.39910068178E+03  0.50400001928E-02 0.  1.
        1   -1    0    0  501    0  0.00000000000E+00  0.00000000000E+00 -0.18316644659E+04  0.18316644659E+04  0.50400001928E-02 0. -1.
    10030    2    1    2    0    0  0.00000000000E+00  0.00000000000E+00 -0.14325637841E+04  0.22307651477E+04  0.17099924411E+04 0.  0.
        3    1    3    3  502    0 -0.74856967027E+02 -0.79198349165E+03 -0.11250384965E+04  0.13778799096E+04  0.10100000352E+00 0. -1.
       -3    1    3    3    0  502  0.74856967027E+02  0.79198349165E+03 -0.30752528767E+03  0.85288523808E+03  0.10100000352E+00 0.  1.
</event>
<event>
 5   0  0.1269175E-04  0.1704880E+04  0.7818609E-02  0.8758586E-01
       -2   -1    0    0    0  501  0.00000000000E+00  0.00000000000E+00  0.67017976434E+03  0.67017976434E+03  0.25500000920E-02 0.  1.
        2   -1    0    0  501    0  0.00000000000E+00  0.00000000000E+00 -0.10842669020E+04  0.10842669020E+04  0.25500000920E-02 0. -1.
    10030    2    1    2    0    0  0.00000000000E+00  0.00000000000E+00 -0.41408713770E+03  0.17544466664E+04  0.17048797458E+04 0.  0.
        2    1    3    3  502    0  0.31018023942E+03 -0.29976709783E+03  0.54957512323E+03  0.69864505291E+03  0.25500000920E-02 0.  1.
       -2    1    3    3    0  502 -0.31018023942E+03  0.29976709783E+03 -0.96366226093E+03  0.10558016135E+04  0.25500000920E-02 0. -1.
</event>
<event>
 5   0  0.1285639E-04  0.1703679E+04  0.7818609E-02  0.8759269E-01
        2   -1    0    0  501    0  0.00000000000E+00  0.00000000000E+00  0.14319312481E+04  0.14319312481E+04  0.25500000920E-02 0.  1.
       -2   -1    0    0    0  501  0.00000000000E+00  0.00000000000E+00 -0.50674969847E+03  0.50674969848E+03  0.25500000920E-02 0. -1.
    10030    2    1    2    0    0  0.00000000000E+00  0.00000000000E+00  0.92518154963E+03  0.19386809466E+04  0.17036792283E+04 0.  0.
        4    1    3    3  502    0 -0.75250489190E+03 -0.39091617163E+03  0.37049476541E+03  0.92539021482E+03  0.12699999809E+01 0.  1.
       -4    1    3    3    0  502  0.75250489190E+03  0.39091617163E+03  0.55468678423E+03  0.10132907318E+04  0.12699999809E+01 0. -1.
</event>
<event>
 5   0  0.1269175E-04  0.1712111E+04  0.7818609E-02  0.8754487E-01
       -2   -1    0    0    0  501  0.00000000000E+00  0.00000000000E+00  0.39588841370E+03  0.39588841370E+03  0.25500000920E-02 0. -1.
        2   -1    0    0  501    0  0.00000000000E+00  0.00000000000E+00 -0.18511059291E+04  0.18511059291E+04  0.25500000920E-02 0.  1.
    10030    2    1    2    0    0  0.00000000000E+00  0.00000000000E+00 -0.14552175154E+04  0.22469943428E+04  0.17121114331E+04 0.  0.
        2    1    3    3  502    0  0.61310592981E+03 -0.89333868257E+02 -0.15028783994E+04  0.16255838657E+04  0.25500000920E-02 0.  1.
       -2    1    3    3    0  502 -0.61310592981E+03  0.89333868257E+02  0.47660883950E+02  0.62141047710E+03  0.25500000920E-02 0. -1.
</event>
<event>
 5   0  0.6564887E-05  0.1707771E+04  0.7818609E-02  0.8756945E-01
        1   -1    0    0  501    0  0.00000000000E+00  0.00000000000E+00  0.10957913295E+04  0.10957913295E+04  0.50400001928E-02 0. -1.
       -1   -1    0    0    0  501  0.00000000000E+00  0.00000000000E+00 -0.66538233249E+03  0.66538233251E+03  0.50400001928E-02 0.  1.
    10030    2    1    2    0    0  0.00000000000E+00  0.00000000000E+00  0.43040899697E+03  0.17611736620E+04  0.17077706998E+04 0.  0.
        4    1    3    3  502    0 -0.51656751084E+03  0.61993440598E+03  0.50314498680E+03  0.95095591465E+03  0.12699999809E+01 0. -1.
       -4    1    3    3    0  502  0.51656751084E+03 -0.61993440598E+03 -0.72735989834E+02  0.81021774733E+03  0.12699999809E+01 0.  1.
</event>
<event>
 5   0  0.1333546E-04  0.1696677E+04  0.7818609E-02  0.8763262E-01
       -2   -1    0    0    0  501  0.00000000000E+00  0.00000000000E+00  0.26046518171E+03  0.26046518172E+03  0.25500000920E-02 0. -1.
        2   -1    0    0  501    0  0.00000000000E+00  0.00000000000E+00 -0.27630488163E+04  0.27630488163E+04  0.25500000920E-02 0.  1.
    10030    2    1    2    0    0  0.00000000000E+00  0.00000000000E+00 -0.25025836346E+04  0.30235139980E+04  0.16966767660E+04 0.  0.
        5    1    3    3  502    0 -0.62004409645E+03  0.51905494594E+03 -0.79423480055E+03  0.11334477169E+04  0.46999998093E+01 0. -1.
       -5    1    3    3    0  502  0.62004409645E+03 -0.51905494594E+03 -0.17083488341E+04  0.18900662812E+04  0.46999998093E+01 0.  1.
</event>
<event>
 5   0  0.6539134E-05  0.1695581E+04  0.7818609E-02  0.8763889E-01
       -1   -1    0    0    0  501  0.00000000000E+00  0.00000000000E+00  0.55243272651E+03  0.55243272654E+03  0.50400001928E-02 0. -1.
        1   -1    0    0  501    0  0.00000000000E+00  0.00000000000E+00 -0.13010608590E+04  0.13010608591E+04  0.50400001928E-02 0.  1.
    10030    2    1    2    0    0  0.00000000000E+00  0.00000000000E+00 -0.74862813253E+03  0.18534935856E+04  0.16955808418E+04 0.  0.
        2    1    3    3  502    0 -0.44964766915E+03 -0.36843259397E+03  0.30026703290E+03  0.65428273226E+03  0.25500000920E-02 0. -1.
       -2    1    3    3    0  502  0.44964766915E+03  0.36843259397E+03 -0.10488951654E+04  0.11992108533E+04  0.25500000920E-02 0.  1.
</event>
<event>
 5   0  0.6601906E-05  0.1701499E+04  0.7818609E-02  0.8760510E-01
        1   -1    0    0  501    0  0.00000000000E+00  0.00000000000E+00  0.69417195122E+03  0.69417195124E+03  0.50400001928E-02 0. -1.
       -1   -1    0    0    0  501  0.00000000000E+00  0.00000000000E+00 -0.10426445187E+04  0.10426445187E+04  0.50400001928E-02 0.  1.
    10030    2    1    2    0    0  0.00000000000E+00  0.00000000000E+00 -0.34847256746E+03  0.17368164699E+04  0.17014988451E+04 0.  0.
        1    1    3    3  502    0 -0.42664720529E+03  0.62821077873E+03 -0.56573072013E+03  0.94695716271E+03  0.50400001928E-02 0.  1.
       -1    1    3    3    0  502  0.42664720529E+03 -0.62821077873E+03  0.21725815267E+03  0.78985930723E+03  0.50400001928E-02 0. -1.
</event>
<event>
 5   0  0.6834837E-05  0.1708586E+04  0.7818609E-02  0.8756482E-01
       -1   -1    0    0    0  501  0.00000000000E+00  0.00000000000E+00  0.88874626554E+03  0.88874626555E+03  0.50400001928E-02 0.  1.
        1   -1    0    0  501    0  0.00000000000E+00  0.00000000000E+00 -0.82117560505E+03  0.82117560506E+03  0.50400001928E-02 0. -1.
    10030    2    1    2    0    0  0.00000000000E+00  0.00000000000E+00  0.67570660493E+02  0.17099218706E+04  0.17085862605E+04 0.  0.
        5    1    3    3  502    0 -0.11125585903E+03  0.79877281934E+03  0.31574796844E+03  0.86610319977E+03  0.46999998093E+01 0.  1.
       -5    1    3    3    0  502  0.11125585903E+03 -0.79877281934E+03 -0.24817730795E+03  0.84381867084E+03  0.46999998093E+01 0. -1.
</event>
<event>
 5   0  0.6564887E-05  0.1695148E+04  0.7818609E-02  0.8764137E-01
        1   -1    0    0  501    0  0.00000000000E+00  0.00000000000E+00  0.18338522823E+04  0.18338522823E+04  0.50400001928E-02 0.  1.
       -1   -1    0    0    0  501  0.00000000000E+00  0.00000000000E+00 -0.39173349785E+03  0.39173349788E+03  0.50400001928E-02 0. -1.
    10030    2    1    2    0    0  0.00000000000E+00  0.00000000000E+00  0.14421187844E+04  0.22255857802E+04  0.16951476267E+04 0.  0.
        4    1    3    3  502    0 -0.43592620263E+03 -0.45113231340E+03  0.14693380624E+04  0.15976570260E+04  0.12699999809E+01 0.  1.
       -4    1    3    3    0  502  0.43592620263E+03  0.45113231340E+03 -0.27219277914E+02  0.62792875418E+03  0.12699999809E+01 0. -1.
</event>
<event>
 5   0  0.1255362E-04  0.1696751E+04  0.7818609E-02  0.8763219E-01
       -2   -1    0    0    0  501  0.00000000000E+00  0.00000000000E+00  0.13342351700E+04  0.13342351700E+04  0.25500000920E-02 0. -1.
        2   -1    0    0  501    0  0.00000000000E+00  0.00000000000E+00 -0.53944108781E+03  0.53944108781E+03  0.25500000920E-02 0.  1.
    10030    2    1    2    0    0  0.00000000000E+00  0.00000000000E+00  0.79479408217E+03  0.18736762578E+04  0.16967513330E+04 0.  0.
        1    1    3    3  502    0 -0.63925224910E+03 -0.52354988629E+03  0.60978905632E+03  0.10269326242E+04  0.50400001928E-02 0. -1.
       -1    1    3    3    0  502  0.63925224910E+03  0.52354988629E+03  0.18500502586E+03  0.84674363360E+03  0.50400001928E-02 0.  1.
</event>
<event>
 5   0  0.6601906E-05  0.1703571E+04  0.7818609E-02  0.8759330E-01
        1   -1    0    0  501    0  0.00000000000E+00  0.00000000000E+00  0.14681118434E+04  0.14681118434E+04  0.50400001928E-02 0.  1.
       -1   -1    0    0    0  501  0.00000000000E+00  0.00000000000E+00 -0.49419839197E+03  0.49419839199E+03  0.50400001928E-02 0. -1.
    10030    2    1    2    0    0  0.00000000000E+00  0.00000000000E+00  0.97391345145E+03  0.19623102354E+04  0.17035709698E+04 0.  0.
        1    1    3    3  502    0 -0.67227212699E+03  0.50833595540E+03  0.62889185425E+03  0.10515988877E+04  0.50400001928E-02 0. -1.
       -1    1    3    3    0  502  0.67227212699E+03 -0.50833595540E+03  0.34502159720E+03  0.91071134770E+03  0.50400001928E-02 0.  1.
</event>
<event>
 5   0  0.1393870E-04  0.1699970E+04  0.7818609E-02  0.8761381E-01
       -2   -1    0    0    0  501  0.00000000000E+00  0.00000000000E+00  0.11407213677E+04  0.11407213677E+04  0.25500000920E-02 0. -1.
        2   -1    0    0  501    0  0.00000000000E+00  0.00000000000E+00 -0.63334888195E+03  0.63334888195E+03  0.25500000920E-02 0.  1.
    10030    2    1    2    0    0  0.00000000000E+00  0.00000000000E+00  0.50737248571E+03  0.17740702496E+04  0.16999701207E+04 0.  0.
        3    1    3    3  502    0  0.71718232301E+03  0.32947422724E+03 -0.75616701802E+02  0.79285663688E+03  0.10100000352E+00 0.  1.
       -3    1    3    3    0  502 -0.71718232301E+03 -0.32947422724E+03  0.58298918752E+03  0.98121361274E+03  0.10100000352E+00 0. -1.
</event>
<event>
 5   0  0.1255362E-04  0.1690454E+04  0.7818609E-02  0.8766827E-01
        2   -1    0    0  501    0  0.00000000000E+00  0.00000000000E+00  0.11868418632E+04  0.11868418632E+04  0.25500000920E-02 0.  1.
       -2   -1    0    0    0  501  0.00000000000E+00  0.00000000000E+00 -0.60194111072E+03  0.60194111073E+03  0.25500000920E-02 0. -1.
    10030    2    1    2    0    0  0.00000000000E+00  0.00000000000E+00  0.58490075249E+03  0.17887829739E+04  0.16904542696E+04 0.  0.
        1    1    3    3  502    0 -0.40407421016E+01  0.61632767234E+03 -0.31958083066E+03  0.69426798474E+03  0.50400001928E-02 0. -1.
       -1    1    3    3    0  502  0.40407421016E+01 -0.61632767234E+03  0.90448158314E+03  0.10945149892E+04  0.50400001928E-02 0.  1.
</event>
<event>
 5   0  0.1255362E-04  0.1696951E+04  0.7818609E-02  0.8763105E-01
       -2   -1    0    0    0  501  0.00000000000E+00  0.00000000000E+00  0.49478523527E+03  0.49478523527E+03  0.25500000920E-02 0. -1.
        2   -1    0    0  501    0  0.00000000000E+00  0.00000000000E+00 -0.14549961198E+04  0.14549961198E+04  0.25500000920E-02 0.  1.
    10030    2    1    2    0    0  0.00000000000E+00  0.00000000000E+00 -0.96021088458E+03  0.19497813551E+04  0.16969509097E+04 0.  0.
        1    1    3    3  502    0 -0.18918017486E+03  0.55858688640E+03  0.22078110351E+03  0.62972433962E+03  0.50400001928E-02 0. -1.
       -1    1    3    3    0  502  0.18918017486E+03 -0.55858688640E+03 -0.11809919881E+04  0.13200570155E+04  0.50400001928E-02 0.  1.
</event>
<event>
 5   0  0.1333546E-04  0.1700483E+04  0.7818609E-02  0.8761089E-01
       -2   -1    0    0    0  501  0.00000000000E+00  0.00000000000E+00  0.27434092507E+03  0.27434092508E+03  0.25500000920E-02 0. -1.
        2   -1    0    0  501    0  0.00000000000E+00  0.00000000000E+00 -0.26350803695E+04  0.26350803695E+04  0.25500000920E-02 0.  1.
    10030    2    1    2    0    0  0.00000000000E+00  0.00000000000E+00 -0.23607394444E+04  0.29094212946E+04  0.17004827388E+04 0.  0.
        5    1    3    3  502    0 -0.21997847318E+03  0.48019863971E+03 -0.23203055371E+04  0.23796682832E+04  0.46999998093E+01 0.  1.
       -5    1    3    3    0  502  0.21997847318E+03 -0.48019863971E+03 -0.40433907296E+02  0.52975301141E+03  0.46999998093E+01 0. -1.
</event>
<event>
 5   0  0.6834837E-05  0.1701446E+04  0.7818609E-02  0.8760540E-01
       -1   -1    0    0    0  501  0.00000000000E+00  0.00000000000E+00  0.25289036926E+03  0.25289036931E+03  0.50400001928E-02 0. -1.
        1   -1    0    0  501    0  0.00000000000E+00  0.00000000000E+00 -0.28618305186E+04  0.28618305186E+04  0.50400001928E-02 0.  1.
    10030    2    1    2    0    0  0.00000000000E+00  0.00000000000E+00 -0.26089401493E+04  0.31147208879E+04  0.17014457108E+04 0.  0.
        5    1    3    3  502    0 -0.50180801784E+03 -0.43780347408E+03 -0.22735370520E+04  0.23690664797E+04  0.46999998093E+01 0.  1.
       -5    1    3    3    0  502  0.50180801784E+03  0.43780347408E+03 -0.33540309734E+03  0.74565440815E+03  0.46999998093E+01 0. -1.
</event>
<event>
 5   0  0.1393870E-04  0.1705977E+04  0.7818609E-02  0.8757963E-01
       -2   -1    0    0    0  501  0.00000000000E+00  0.00000000000E+00  0.84613481921E+03  0.84613481922E+03  0.25500000920E-02 0. -1.
        2   -1    0    0  501    0  0.00000000000E+00  0.00000000000E+00 -0.85989769014E+03  0.85989769015E+03  0.25500000920E-02 0.  1.
    10030    2    1    2    0    0  0.00000000000E+00  0.00000000000E+00 -0.13762870931E+02  0.17060325094E+04  0.17059769947E+04 0.  0.
        3    1    3    3  502    0  0.42532855728E+03  0.64466562567E+03 -0.36895842690E+03  0.85593719486E+03  0.10100000352E+00 0.  1.
       -3    1    3    3    0  502 -0.42532855728E+03 -0.64466562567E+03  0.35519555597E+03  0.85009531450E+03  0.10100000352E+00 0. -1.
</event>
<event>
 5   0  0.6539134E-05  0.1708091E+04  0.7818609E-02  0.8756763E-01
        1   -1    0    0  501    0  0.00000000000E+00  0.00000000000E+00  0.68943595819E+03  0.68943595821E+03  0.50400001928E-02 0.  1.
       -1   -1    0    0    0  501  0.00000000000E+00  0.00000000000E+00 -0.10579569877E+04  0.10579569877E+04  0.50400001928E-02 0. -1.
    10030    2    1    2    0    0  0.00000000000E+00  0.00000000000E+00 -0.36852102948E+03  0.17473929459E+04  0.17080908519E+04 0.  0.
        2    1    3    3  502    0  0.61447468854E+03 -0.23157308520E+03 -0.74289140830E+03  0.99151040397E+03  0.25500000920E-02 0. -1.
       -2    1    3    3    0  502 -0.61447468854E+03  0.23157308520E+03  0.37437037882E+03  0.75588254192E+03  0.25500000920E-02 0.  1.
</event>
<event>
 5   0  0.6601906E-05  0.1691670E+04  0.7818609E-02  0.8766130E-01
       -1   -1    0    0    0  501  0.00000000000E+00  0.00000000000E+00  0.46595997043E+03  0.46595997046E+03  0.50400001928E-02 0. -1.
        1   -1    0    0  501    0  0.00000000000E+00  0.00000000000E+00 -0.15354041360E+04  0.15354041360E+04  0.50400001928E-02 0.  1.
    10030    2    1    2    0    0  0.00000000000E+00  0.00000000000E+00 -0.10694441655E+04  0.20013641065E+04  0.16916700220E+04 0.  0.
        1    1    3    3  502    0  0.45367593664E+03 -0.11684374599E+03  0.29845035622E+03  0.55547000965E+03  0.50400001928E-02 0. -1.
       -1    1    3    3    0  502 -0.45367593664E+03  0.11684374599E+03 -0.13678945218E+04  0.14458940968E+04  0.50400001928E-02 0.  1.
</event>
<event>
 5   0  0.6615842E-05  0.1692330E+04  0.7818609E-02  0.8765751E-01
        1   -1    0    0  501    0  0.00000000000E+00  0.00000000000E+00  0.10057156863E+04  0.10057156864E+04  0.50400001928E-02 0.  1.
       -1   -1    0    0    0  501  0.00000000000E+00  0.00000000000E+00 -0.71192622888E+03  0.71192622890E+03  0.50400001928E-02 0. -1.
    10030    2    1    2    0    0  0.00000000000E+00  0.00000000000E+00  0.29378945746E+03  0.17176419153E+04  0.16923301994E+04 0.  0.
        3    1    3    3  502    0  0.67584555704E+03 -0.74280428695E+01 -0.36980993369E+03  0.77044259361E+03  0.10100000352E+00 0. -1.
       -3    1    3    3    0  502 -0.67584555704E+03  0.74280428695E+01  0.66359939114E+03  0.94719932164E+03  0.10100000352E+00 0.  1.
</event>
<event>
 5   0  0.6615842E-05  0.1700978E+04  0.7818609E-02  0.8760807E-01
       -1   -1    0    0    0  501  0.00000000000E+00  0.00000000000E+00  0.58042454408E+03  0.58042454410E+03  0.50400001928E-02 0.  1.
        1   -1    0    0  501    0  0.00000000000E+00  0.00000000000E+00 -0.12462113848E+04  0.12462113848E+04  0.50400001928E-02 0. -1.
    10030    2    1    2    0    0  0.00000000000E+00  0.00000000000E+00 -0.66578684076E+03  0.18266359289E+04  0.17009781596E+04 0.  0.
        3    1    3    3  502    0  0.25264628329E+02 -0.80645048055E+03 -0.62170556405E+03  0.10185865194E+04  0.10100000352E+00 0. -1.
       -3    1    3    3    0  502 -0.25264628329E+02  0.80645048055E+03 -0.44081276709E+02  0.80804940950E+03  0.10100000352E+00 0.  1.
</event>
<event>
 5   0  0.1269175E-04  0.1698911E+04  0.7818609E-02  0.8761986E-01
       -2   -1    0    0    0  501  0.00000000000E+00  0.00000000000E+00  0.70330173391E+03  0.70330173391E+03  0.25500000920E-02 0. -1.
        2   -1    0    0  501    0  0.00000000000E+00  0.00000000000E+00 -0.10259814273E+04  0.10259814273E+04  0.25500000920E-02 0.  1.
    10030    2    1    2    0    0  0.00000000000E+00  0.00000000000E+00 -0.32267969340E+03  0.17292831612E+04  0.16989108473E+04 0.  0.
        2    1    3    3  502    0  0.59413562861E+03 -0.86741405900E+02  0.45027945526E+03  0.75051502618E+03  0.25500000920E-02 0. -1.
       -2    1    3    3    0  502 -0.59413562861E+03  0.86741405900E+02 -0.77295914866E+03  0.97876813505E+03  0.25500000920E-02 0.  1.
</event>
<event>
 5   0  0.6834837E-05  0.1706649E+04  0.7818609E-02  0.8757581E-01
        1   -1    0    0  501    0  0.00000000000E+00  0.00000000000E+00  0.99949711297E+03  0.99949711298E+03  0.50400001928E-02 0.  1.
       -1   -1    0    0    0  501  0.00000000000E+00  0.00000000000E+00 -0.72852906637E+03  0.72852906639E+03  0.50400001928E-02 0. -1.
    10030    2    1    2    0    0  0.00000000000E+00  0.00000000000E+00  0.27096804660E+03  0.17280261794E+04  0.17066489956E+04 0.  0.
        5    1    3    3  502    0  0.15251695692E+03 -0.30647827174E+03  0.92690769054E+03  0.98811452270E+03  0.46999998093E+01 0.  1.
       -5    1    3    3    0  502 -0.15251695692E+03  0.30647827174E+03 -0.65593964394E+03  0.73991165667E+03  0.46999998093E+01 0. -1.
</event>
<event>
 5   0  0.1333546E-04  0.1694274E+04  0.7818609E-02  0.8764637E-01
       -2   -1    0    0    0  501  0.00000000000E+00  0.00000000000E+00  0.62356303566E+03  0.62356303566E+03  0.25500000920E-02 0. -1.
        2   -1    0    0  501    0  0.00000000000E+00  0.00000000000E+00 -0.11508715543E+04  0.11508715543E+04  0.25500000920E-02 0.  1.
    10030    2    1    2    0    0  0.00000000000E+00  0.00000000000E+00 -0.52730851867E+03  0.17744345900E+04  0.16942738386E+04 0.  0.
        5    1    3    3  502    0  0.10025599834E+03  0.82130369816E+03 -0.45398830447E+03  0.94377884083E+03  0.46999998093E+01 0. -1.
       -5    1    3    3    0  502 -0.10025599834E+03 -0.82130369816E+03 -0.73320214200E+02  0.83065574916E+03  0.46999998093E+01 0.  1.
</event>
<event>
 5   0  0.6539134E-05  0.1681743E+04  0.7818609E-02  0.8771846E-01
       -1   -1    0    0    0  501  0.00000000000E+00  0.00000000000E+00  0.50527596391E+03  0.50527596394E+03  0.50400001928E-02 0.  1.
        1   -1    0    0  501    0  0.00000000000E+00  0.00000000000E+00 -0.13993641221E+04  0.13993641221E+04  0.50400001928E-02 0. -1.
    10030    2    1    2    0    0  0.00000000000E+00  0.00000000000E+00 -0.89408815816E+03  0.19046400860E+04  0.16817432095E+04 0.  0.
        2    1    3    3  502    0  0.89467399966E+02 -0.19341034498E+02 -0.13937049657E+04  0.13967075652E+04  0.25500000920E-02 0. -1.
       -2    1    3    3    0  502 -0.89467399966E+02  0.19341034498E+02  0.49961680756E+03  0.50793252079E+03  0.25500000920E-02 0.  1.
</event>
<event>
 5   0  0.6539134E-05  0.1698186E+04  0.7818609E-02  0.8762400E-01
       -1   -1    0    0    0  501  0.00000000000E+00  0.00000000000E+00  0.72126743019E+03  0.72126743021E+03  0.50400001928E-02 0. -1.
        1   -1    0    0  501    0  0.00000000000E+00  0.00000000000E+00 -0.99957174568E+03  0.99957174569E+03  0.50400001928E-02 0.  1.
    10030    2    1    2    0    0  0.00000000000E+00  0.00000000000E+00 -0.27830431549E+03  0.17208391759E+04  0.16981855544E+04 0.  0.
        2    1    3    3  502    0  0.60410991252E+03  0.71654051598E+02 -0.73940142214E+03  0.95749545825E+03  0.25500000920E-02 0.  1.
       -2    1    3    3    0  502 -0.60410991252E+03 -0.71654051598E+02  0.46109710665E+03  0.76334371765E+03  0.25500000920E-02 0. -1.
</event>
<event>
 5   0  0.6601906E-05  0.1699614E+04  0.7818609E-02  0.8761584E-01
       -1   -1    0    0    0  501  0.00000000000E+00  0.00000000000E+00  0.81168398463E+03  0.81168398464E+03  0.50400001928E-02 0. -1.
        1   -1    0    0  501    0  0.00000000000E+00  0.00000000000E+00 -0.88972075946E+03  0.88972075948E+03  0.50400001928E-02 0.  1.
    10030    2    1    2    0    0  0.00000000000E+00  0.00000000000E+00 -0.78036774835E+02  0.17014047441E+04  0.16996141812E+04 0.  0.
        1    1    3    3  502    0  0.48704300035E+03 -0.17322019394E+03 -0.71423322656E+03  0.88167183335E+03  0.50400001928E-02 0.  1.
       -1    1    3    3    0  502 -0.48704300035E+03  0.17322019394E+03  0.63619645173E+03  0.81973291077E+03  0.50400001928E-02 0. -1.
</event>
<event>
 5   0  0.6539134E-05  0.1701968E+04  0.7818609E-02  0.8760243E-01
       -1   -1    0    0    0  501  0.00000000000E+00  0.00000000000E+00  0.81561391726E+03  0.81561391727E+03  0.50400001928E-02 0. -1.
        1   -1    0    0  501    0  0.00000000000E+00  0.00000000000E+00 -0.88788824556E+03  0.88788824558E+03  0.50400001928E-02 0.  1.
    10030    2    1    2    0    0  0.00000000000E+00  0.00000000000E+00 -0.72274328309E+02  0.17035021628E+04  0.17019682842E+04 0.  0.
        2    1    3    3  502    0 -0.13166318623E+03  0.30746767545E+03 -0.81933994884E+03  0.88497995335E+03  0.25500000920E-02 0.  1.
       -2    1    3    3    0  502  0.13166318623E+03 -0.30746767545E+03  0.74706562053E+03  0.81852220950E+03  0.25500000920E-02 0. -1.
</event>
<event>
 5   0  0.1255362E-04  0.1698687E+04  0.7818609E-02  0.8762113E-01
        2   -1    0    0  501    0  0.00000000000E+00  0.00000000000E+00  0.83088433579E+03  0.83088433579E+03  0.25500000920E-02 0.  1.
       -2   -1    0    0    0  501  0.00000000000E+00  0.00000000000E+00 -0.86821308827E+03  0.86821308827E+03  0.25500000920E-02 0. -1.
    10030    2    1    2    0    0  0.00000000000E+00  0.00000000000E+00 -0.37328752480E+02  0.16990974241E+04  0.16986873228E+04 0.  0.
        1    1    3    3  502    0  0.11495534874E+03 -0.65119582445E+03  0.51448768525E+03  0.83783549238E+03  0.50400001928E-02 0.  1.
       -1    1    3    3    0  502 -0.11495534874E+03  0.65119582445E+03 -0.55181643773E+03  0.86126193168E+03  0.50400001928E-02 0. -1.
</event>
<event>
 5   0  0.1255362E-04  0.1698313E+04  0.7818609E-02  0.8762327E-01
        2   -1    0    0  501    0  0.00000000000E+00  0.00000000000E+00  0.19457857948E+04  0.19457857948E+04  0.25500000920E-02 0. -1.
       -2   -1    0    0    0  501  0.00000000000E+00  0.00000000000E+00 -0.37057858793E+03  0.37057858794E+03  0.25500000920E-02 0.  1.
    10030    2    1    2    0    0  0.00000000000E+00  0.00000000000E+00  0.15752072068E+04  0.23163643827E+04  0.16983127536E+04 0.  0.
        1    1    3    3  502    0  0.46450912936E+03 -0.60187843532E+03  0.27175980188E+03  0.80739071836E+03  0.50400001928E-02 0. -1.
       -1    1    3    3    0  502 -0.46450912936E+03  0.60187843532E+03  0.13034474050E+04  0.15089736643E+04  0.50400001928E-02 0.  1.
</event>
<event>
 5   0  0.4720875E-05  0.1696708E+04  0.7818609E-02  0.8763244E-01
        3   -1    0    0  501    0  0.00000000000E+00  0.00000000000E+00  0.51051589859E+03  0.51051590858E+03  0.10100000352E+00 0.  1.
       -3   -1    0    0    0  501  0.00000000000E+00  0.00000000000E+00 -0.14097597844E+04  0.14097597880E+04  0.10100000352E+00 0. -1.
    10030    2    1    2    0    0  0.00000000000E+00  0.00000000000E+00 -0.89924388584E+03  0.19202756966E+04  0.16967083382E+04 0.  0.
        3    1    3    3  502    0 -0.10965581543E+02 -0.14336764640E+03  0.49662476027E+03  0.51702097513E+03  0.10100000352E+00 0.  1.
       -3    1    3    3    0  502  0.10965581543E+02  0.14336764640E+03 -0.13958686461E+04  0.14032547215E+04  0.10100000352E+00 0. -1.
</event>
<event>
 5   0  0.6564887E-05  0.1759549E+04  0.7818609E-02  0.8728111E-01
        1   -1    0    0  501    0  0.00000000000E+00  0.00000000000E+00  0.56100599705E+03  0.56100599708E+03  0.50400001928E-02 0.  1.
       -1   -1    0    0    0  501  0.00000000000E+00  0.00000000000E+00 -0.13796704895E+04  0.13796704895E+04  0.50400001928E-02 0. -1.
    10030    2    1    2    0    0  0.00000000000E+00  0.00000000000E+00 -0.81866449247E+03  0.19406764866E+04  0.17595492816E+04 0.  0.
        4    1    3    3  502    0 -0.75567580138E+03 -0.45007641444E+03 -0.38763178569E+03  0.96118401454E+03  0.12699999809E+01 0.  1.
       -4    1    3    3    0  502  0.75567580138E+03  0.45007641444E+03 -0.43103270678E+03  0.97949247207E+03  0.12699999809E+01 0. -1.
</event>
<event>
 5   0  0.1333546E-04  0.1700767E+04  0.7818609E-02  0.8760927E-01
       -2   -1    0    0    0  501  0.00000000000E+00  0.00000000000E+00  0.76753659198E+03  0.76753659198E+03  0.25500000920E-02 0. -1.
        2   -1    0    0  501    0  0.00000000000E+00  0.00000000000E+00 -0.94217250653E+03  0.94217250654E+03  0.25500000920E-02 0.  1.
    10030    2    1    2    0    0  0.00000000000E+00  0.00000000000E+00 -0.17463591456E+03  0.17097090985E+04  0.17007667385E+04 0.  0.
        5    1    3    3  502    0  0.58984350520E+03  0.66008043760E+02 -0.69950047269E+03  0.91738510112E+03  0.46999998093E+01 0.  1.
       -5    1    3    3    0  502 -0.58984350520E+03 -0.66008043760E+02  0.52486455813E+03  0.79232399739E+03  0.46999998093E+01 0. -1.
</event>
<event>
 5   0  0.6834837E-05  0.1697048E+04  0.7818609E-02  0.8763050E-01
       -1   -1    0    0    0  501  0.00000000000E+00  0.00000000000E+00  0.52582165467E+03  0.52582165470E+03  0.50400001928E-02 0. -1.
        1   -1    0    0  501    0  0.00000000000E+00  0.00000000000E+00 -0.13692726822E+04  0.13692726822E+04  0.50400001928E-02 0.  1.
    10030    2    1    2    0    0  0.00000000000E+00  0.00000000000E+00 -0.84345102753E+03  0.18950943369E+04  0.16970482933E+04 0.  0.
        5    1    3    3  502    0 -0.32268790372E+03 -0.11779813148E+02 -0.12979652300E+04  0.13375358221E+04  0.46999998093E+01 0.  1.
       -5    1    3    3    0  502  0.32268790372E+03  0.11779813148E+02  0.45451420245E+03  0.55755851480E+03  0.46999998093E+01 0. -1.
</event>
<event>
 5   0  0.6539134E-05  0.1700389E+04  0.7818609E-02  0.8761142E-01
       -1   -1    0    0    0  501  0.00000000000E+00  0.00000000000E+00  0.13116365914E+04  0.13116365914E+04  0.50400001928E-02 0.  1.
        1   -1    0    0  501    0  0.00000000000E+00  0.00000000000E+00 -0.55109082106E+03  0.55109082109E+03  0.50400001928E-02 0. -1.
    10030    2    1    2    0    0  0.00000000000E+00  0.00000000000E+00  0.76054577037E+03  0.18627274125E+04  0.17003892333E+04 0.  0.
        2    1    3    3  502    0 -0.31373376416E+03  0.42825798118E+03  0.11077491572E+04  0.12283899904E+04  0.25500000920E-02 0.  1.
       -2    1    3    3    0  502  0.31373376416E+03 -0.42825798118E+03 -0.34720338687E+03  0.63433742210E+03  0.25500000920E-02 0. -1.
</event>
<event>
 5   0  0.1333546E-04  0.1715630E+04  0.7818609E-02  0.8752500E-01
        2   -1    0    0  501    0  0.00000000000E+00  0.00000000000E+00  0.22621266513E+04  0.22621266513E+04  0.25500000920E-02 0. -1.
       -2   -1    0    0    0  501  0.00000000000E+00  0.00000000000E+00 -0.32528966783E+03  0.32528966784E+03  0.25500000920E-02 0.  1.
    10030    2    1    2    0    0  0.00000000000E+00  0.00000000000E+00  0.19368369834E+04  0.25874163191E+04  0.17156298284E+04 0.  0.
        5    1    3    3  502    0  0.16046997444E+03 -0.78830940418E+03  0.51940176838E+03  0.95759209291E+03  0.46999998093E+01 0.  1.
       -5    1    3    3    0  502 -0.16046997444E+03  0.78830940418E+03  0.14174352150E+04  0.16298242262E+04  0.46999998093E+01 0. -1.
</event>
<event>
 5   0  0.1255362E-04  0.1687614E+04  0.7818609E-02  0.8768460E-01
       -2   -1    0    0    0  501  0.00000000000E+00  0.00000000000E+00  0.51897524503E+03  0.51897524504E+03  0.25500000920E-02 0.  1.
        2   -1    0    0  501    0  0.00000000000E+00  0.00000000000E+00 -0.13719541104E+04  0.13719541104E+04  0.25500000920E-02 0. -1.
    10030    2    1    2    0    0  0.00000000000E+00  0.00000000000E+00 -0.85297886533E+03  0.18909293554E+04  0.16876139613E+04 0.  0.
        1    1    3    3  502    0 -0.72097320903E+03  0.21338739944E+03  0.26300910965E+01  0.75189325558E+03  0.50400001928E-02 0.  1.
       -1    1    3    3    0  502  0.72097320903E+03 -0.21338739944E+03 -0.85560895643E+03  0.11390360998E+04  0.50400001928E-02 0. -1.
</event>
<event>
 5   0  0.6539134E-05  0.1695500E+04  0.7818609E-02  0.8763935E-01
        1   -1    0    0  501    0  0.00000000000E+00  0.00000000000E+00  0.20422154009E+04  0.20422154009E+04  0.50400001928E-02 0. -1.
       -1   -1    0    0    0  501  0.00000000000E+00  0.00000000000E+00 -0.35191195059E+03  0.35191195063E+03  0.50400001928E-02 0.  1.
    10030    2    1    2    0    0  0.00000000000E+00  0.00000000000E+00  0.16903034503E+04  0.23941273515E+04  0.16954999325E+04 0.  0.
        2    1    3    3  502    0  0.19597420136E+03  0.17735214031E+03  0.19825477293E+04  0.20000887901E+04  0.25500000920E-02 0. -1.
       -2    1    3    3    0  502 -0.19597420136E+03 -0.17735214031E+03 -0.29224427902E+03  0.39403856143E+03  0.25500000920E-02 0.  1.
</event>
<event>
 5   0  0.4720875E-05  0.1705894E+04  0.7818609E-02  0.8758010E-01
        3   -1    0    0  501    0  0.00000000000E+00  0.00000000000E+00  0.33860970657E+03  0.33860972163E+03  0.10100000352E+00 0.  1.
       -3   -1    0    0    0  501  0.00000000000E+00  0.00000000000E+00 -0.21485469356E+04  0.21485469380E+04  0.10100000352E+00 0. -1.
    10030    2    1    2    0    0  0.00000000000E+00  0.00000000000E+00 -0.18099372290E+04  0.24871566596E+04  0.17058943333E+04 0.  0.
        2    1    3    3  502    0  0.44602063609E+03 -0.26657181319E+03 -0.18911525449E+04  0.19612375908E+04  0.25500000920E-02 0. -1.
       -2    1    3    3    0  502 -0.44602063609E+03  0.26657181319E+03  0.81215315878E+02  0.52591906881E+03  0.25500000920E-02 0.  1.
</event>
<event>
 5   0  0.6615842E-05  0.1814112E+04  0.7818609E-02  0.8698831E-01
       -1   -1    0    0    0  501  0.00000000000E+00  0.00000000000E+00  0.98571454128E+03  0.98571454130E+03  0.50400001928E-02 0. -1.
        1   -1    0    0  501    0  0.00000000000E+00  0.00000000000E+00 -0.83467414266E+03  0.83467414267E+03  0.50400001928E-02 0.  1.
    10030    2    1    2    0    0  0.00000000000E+00  0.00000000000E+00  0.15104039863E+03  0.18203886840E+04  0.18141118374E+04 0.  0.
        3    1    3    3  502    0  0.24092140180E+02 -0.69379928878E+03 -0.51029125108E+03  0.86158868114E+03  0.10100000352E+00 0.  1.
       -3    1    3    3    0  502 -0.24092140180E+02  0.69379928878E+03  0.66133164971E+03  0.95880000284E+03  0.10100000352E+00 0. -1.
</event>
<event>
 5   0  0.6615842E-05  0.1699040E+04  0.7818609E-02  0.8761912E-01
       -1   -1    0    0    0  501  0.00000000000E+00  0.00000000000E+00  0.86199374274E+03  0.86199374275E+03  0.50400001928E-02 0.  1.
        1   -1    0    0  501    0  0.00000000000E+00  0.00000000000E+00 -0.83722643313E+03  0.83722643314E+03  0.50400001928E-02 0. -1.
    10030    2    1    2    0    0  0.00000000000E+00  0.00000000000E+00  0.24767309609E+02  0.16992201759E+04  0.16990396660E+04 0.  0.
        3    1    3    3  502    0  0.67933849555E+03 -0.21016957417E+03  0.47720383148E+03  0.85638516359E+03  0.10100000352E+00 0.  1.
       -3    1    3    3    0  502 -0.67933849555E+03  0.21016957417E+03 -0.45243652187E+03  0.84283501230E+03  0.10100000352E+00 0. -1.
</event>
<event>
 5   0  0.6834837E-05  0.1687002E+04  0.7818609E-02  0.8768813E-01
       -1   -1    0    0    0  501  0.00000000000E+00  0.00000000000E+00  0.57165602227E+03  0.57165602229E+03  0.50400001928E-02 0. -1.
        1   -1    0    0  501    0  0.00000000000E+00  0.00000000000E+00 -0.12446183634E+04  0.12446183634E+04  0.50400001928E-02 0.  1.
    10030    2    1    2    0    0  0.00000000000E+00  0.00000000000E+00 -0.67296234116E+03  0.18162743857E+04  0.16870015802E+04 0.  0.
        5    1    3    3  502    0 -0.30189953078E+03 -0.37530805104E+03  0.40901876303E+03  0.63191605326E+03  0.46999998093E+01 0. -1.
       -5    1    3    3    0  502  0.30189953078E+03  0.37530805104E+03 -0.10819811042E+04  0.11843583325E+04  0.46999998093E+01 0.  1.
</event>
<event>
 5   0  0.6564887E-05  0.1706371E+04  0.7818609E-02  0.8757739E-01
       -1   -1    0    0    0  501  0.00000000000E+00  0.00000000000E+00  0.76642405249E+03  0.76642405251E+03  0.50400001928E-02 0. -1.
        1   -1    0    0  501    0  0.00000000000E+00  0.00000000000E+00 -0.94976832290E+03  0.94976832291E+03  0.50400001928E-02 0.  1.
    10030    2    1    2    0    0  0.00000000000E+00  0.00000000000E+00 -0.18334427041E+03  0.17161923754E+04  0.17063707534E+04 0.  0.
        4    1    3    3  502    0 -0.32202692102E+03 -0.20950543447E+02  0.70267343828E+03  0.77323465837E+03  0.12699999809E+01 0. -1.
       -4    1    3    3    0  502  0.32202692102E+03  0.20950543447E+02 -0.88601770869E+03  0.94295771705E+03  0.12699999809E+01 0.  1.
</event>
<event>
 5   0  0.6834837E-05  0.1695345E+04  0.7818609E-02  0.8764024E-01
        1   -1    0    0  501    0  0.00000000000E+00  0.00000000000E+00  0.65775867178E+03  0.65775867180E+03  0.50400001928E-02 0.  1.
       -1   -1    0    0    0  501  0.00000000000E+00  0.00000000000E+00 -0.10924195323E+04  0.10924195323E+04  0.50400001928E-02 0. -1.
    10030    2    1    2    0    0  0.00000000000E+00  0.00000000000E+00 -0.43466086055E+03  0.17501782041E+04  0.16953447091E+04 0.  0.
        5    1    3    3  502    0  0.58726416397E+03  0.44237405310E+03 -0.65281833219E+03  0.98324354357E+03  0.46999998093E+01 0. -1.
       -5    1    3    3    0  502 -0.58726416397E+03 -0.44237405310E+03  0.21815747164E+03  0.76693466056E+03  0.46999998093E+01 0.  1.
</event>
<event>
 5   0  0.1285639E-04  0.1685408E+04  0.7818609E-02  0.8769731E-01
       -2   -1    0    0    0  501  0.00000000000E+00  0.00000000000E+00  0.48355021710E+03  0.48355021711E+03  0.25500000920E-02 0.  1.
        2   -1    0    0  501    0  0.00000000000E+00  0.00000000000E+00 -0.14686166858E+04  0.14686166858E+04  0.25500000920E-02 0. -1.
    10030    2    1    2    0    0  0.00000000000E+00  0.00000000000E+00 -0.98506646873E+03  0.19521669029E+04  0.16854078643E+04 0.  0.
        4    1    3    3  502    0 -0.73125763128E+03  0.41659045814E+01 -0.97761878441E+03  0.12208583778E+04  0.12699999809E+01 0. -1.
       -4    1    3    3    0  502  0.73125763128E+03 -0.41659045814E+01 -0.74476843150E+01  0.73130852516E+03  0.12699999809E+01 0.  1.
</event>
<event>
 5   0  0.6834837E-05  0.1702327E+04  0.7818609E-02  0.8760038E-01
        1   -1    0    0  501    0  0.00000000000E+00  0.00000000000E+00  0.65543551285E+03  0.65543551287E+03  0.50400001928E-02 0.  1.
       -1   -1    0    0    0  501  0.00000000000E+00  0.00000000000E+00 -0.11053405848E+04  0.11053405848E+04  0.50400001928E-02 0. -1.
    10030    2    1    2    0    0  0.00000000000E+00  0.00000000000E+00 -0.44990507199E+03  0.17607760977E+04  0.17023271990E+04 0.  0.
        5    1    3    3  502    0  0.48720806875E+03  0.28570987234E+03 -0.88356920869E+03  0.10486746254E+04  0.46999998093E+01 0. -1.
       -5    1    3    3    0  502 -0.48720806875E+03 -0.28570987234E+03  0.43366413671E+03  0.71210147232E+03  0.46999998093E+01 0.  1.
</event>
<event>
 5   0  0.1393870E-04  0.1701732E+04  0.7818609E-02  0.8760377E-01
       -2   -1    0    0    0  501  0.00000000000E+00  0.00000000000E+00  0.53636251634E+03  0.53636251635E+03  0.25500000920E-02 0.  1.
        2   -1    0    0  501    0  0.00000000000E+00  0.00000000000E+00 -0.13497828502E+04  0.13497828502E+04  0.25500000920E-02 0. -1.
    10030    2    1    2    0    0  0.00000000000E+00  0.00000000000E+00 -0.81342033381E+03  0.18861453665E+04  0.17017319719E+04 0.  0.
        3    1    3    3  502    0 -0.20804225144E+03  0.37916854051E+03  0.40544652458E+03  0.59282143601E+03  0.10100000352E+00 0.  1.
       -3    1    3    3    0  502  0.20804225144E+03 -0.37916854051E+03 -0.12188668584E+04  0.12933239305E+04  0.10100000352E+00 0. -1.
</event>
<event>
 5   0  0.1393870E-04  0.1699662E+04  0.7818609E-02  0.8761557E-01
       -2   -1    0    0    0  501  0.00000000000E+00  0.00000000000E+00  0.59241766756E+03  0.59241766757E+03  0.25500000920E-02 0.  1.
        2   -1    0    0  501    0  0.00000000000E+00  0.00000000000E+00 -0.12190942142E+04  0.12190942142E+04  0.25500000920E-02 0. -1.
    10030    2    1    2    0    0  0.00000000000E+00  0.00000000000E+00 -0.62667654659E+03  0.18115118817E+04  0.16996622616E+04 0.  0.
        3    1    3    3  502    0  0.42094914040E+03  0.69538446944E+03 -0.49123024342E+02  0.81435300752E+03  0.10100000352E+00 0.  1.
       -3    1    3    3    0  502 -0.42094914040E+03 -0.69538446944E+03 -0.57755352225E+03  0.99715887420E+03  0.10100000352E+00 0. -1.
</event>
<event>
 5   0  0.6539134E-05  0.1698207E+04  0.7818609E-02  0.8762388E-01
        1   -1    0    0  501    0  0.00000000000E+00  0.00000000000E+00  0.74701663043E+03  0.74701663045E+03  0.50400001928E-02 0. -1.
       -1   -1    0    0    0  501  0.00000000000E+00  0.00000000000E+00 -0.96514166711E+03  0.96514166713E+03  0.50400001928E-02 0.  1.
    10030    2    1    2    0    0  0.00000000000E+00  0.00000000000E+00 -0.21812503668E+03  0.17121582976E+04  0.16982071441E+04 0.  0.
        2    1    3    3  502    0  0.72017867465E+03  0.27503338434E+03 -0.46790243568E+03  0.90179453050E+03  0.25500000920E-02 0. -1.
       -2    1    3    3    0  502 -0.72017867465E+03 -0.27503338434E+03  0.24977739900E+03  0.81036376707E+03  0.25500000920E-02 0.  1.
</event>
<event>
 5   0  0.1333546E-04  0.1700349E+04  0.7818609E-02  0.8761165E-01
        2   -1    0    0  501    0  0.00000000000E+00  0.00000000000E+00  0.15808716605E+04  0.15808716605E+04  0.25500000920E-02 0.  1.
       -2   -1    0    0    0  501  0.00000000000E+00  0.00000000000E+00 -0.45721386828E+03  0.45721386829E+03  0.25500000920E-02 0. -1.
    10030    2    1    2    0    0  0.00000000000E+00  0.00000000000E+00  0.11236577922E+04  0.20380855288E+04  0.17003487256E+04 0.  0.
        5    1    3    3  502    0  0.62250379009E+03 -0.57897397231E+03  0.55314170684E+03  0.10142532559E+04  0.46999998093E+01 0.  1.
       -5    1    3    3    0  502 -0.62250379009E+03  0.57897397231E+03  0.57051608536E+03  0.10238322729E+04  0.46999998093E+01 0. -1.
</event>
<event>
 5   0  0.6834837E-05  0.1702375E+04  0.7818609E-02  0.8760011E-01
       -1   -1    0    0    0  501  0.00000000000E+00  0.00000000000E+00  0.75936577766E+03  0.75936577768E+03  0.50400001928E-02 0. -1.
        1   -1    0    0  501    0  0.00000000000E+00  0.00000000000E+00 -0.95411252269E+03  0.95411252270E+03  0.50400001928E-02 0.  1.
    10030    2    1    2    0    0  0.00000000000E+00  0.00000000000E+00 -0.19474674503E+03  0.17134783004E+04  0.17023752792E+04 0.  0.
        5    1    3    3  502    0 -0.51131817368E+03 -0.12656026130E+03 -0.77034048581E+03  0.93322576505E+03  0.46999998093E+01 0.  1.
       -5    1    3    3    0  502  0.51131817368E+03  0.12656026130E+03  0.57559374079E+03  0.78025253534E+03  0.46999998093E+01 0. -1.
</event>
<event>
 5   0  0.6539134E-05  0.1819218E+04  0.7818609E-02  0.8696146E-01
        1   -1    0    0  501    0  0.00000000000E+00  0.00000000000E+00  0.37324801855E+03  0.37324801859E+03  0.50400001928E-02 0.  1.
       -1   -1    0    0    0  501  0.00000000000E+00  0.00000000000E+00 -0.22167247758E+04  0.22167247758E+04  0.50400001928E-02 0. -1.
    10030    2    1    2    0    0  0.00000000000E+00  0.00000000000E+00 -0.18434767572E+04  0.25899727944E+04  0.18192175574E+04 0.  0.
        2    1    3    3  502    0  0.20955318672E+03  0.15444829088E+03 -0.21625593799E+04  0.21781712247E+04  0.25500000920E-02 0. -1.
       -2    1    3    3    0  502 -0.20955318672E+03 -0.15444829088E+03  0.31908262270E+03  0.41180156962E+03  0.25500000920E-02 0.  1.
</event>
<event>
 5   0  0.1333546E-04  0.1700687E+04  0.7818609E-02  0.8760973E-01
       -2   -1    0    0    0  501  0.00000000000E+00  0.00000000000E+00  0.52185366956E+03  0.52185366956E+03  0.25500000920E-02 0. -1.
        2   -1    0    0  501    0  0.00000000000E+00  0.00000000000E+00 -0.13856069709E+04  0.13856069709E+04  0.25500000920E-02 0.  1.
    10030    2    1    2    0    0  0.00000000000E+00  0.00000000000E+00 -0.86375330139E+03  0.19074606405E+04  0.17006870169E+04 0.  0.
        5    1    3    3  502    0 -0.16157852411E+03  0.41330858792E+01  0.50445141298E+03  0.52973391425E+03  0.46999998093E+01 0. -1.
       -5    1    3    3    0  502  0.16157852411E+03 -0.41330858792E+01 -0.13682047144E+04  0.13777267263E+04  0.46999998093E+01 0.  1.
</event>
<event>
 5   0  0.1255362E-04  0.1702200E+04  0.7818609E-02  0.8760111E-01
       -2   -1    0    0    0  501  0.00000000000E+00  0.00000000000E+00  0.89830942147E+03  0.89830942147E+03  0.25500000920E-02 0.  1.
        2   -1    0    0  501    0  0.00000000000E+00  0.00000000000E+00 -0.80637172175E+03  0.80637172175E+03  0.25500000920E-02 0. -1.
    10030    2    1    2    0    0  0.00000000000E+00  0.00000000000E+00  0.91937699723E+02  0.17046811432E+04  0.17022001232E+04 0.  0.
        1    1    3    3  502    0 -0.15397863405E+03  0.42756215174E+03  0.76663741460E+03  0.89120802220E+03  0.50400001928E-02 0.  1.
       -1    1    3    3    0  502  0.15397863405E+03 -0.42756215174E+03 -0.67469971488E+03  0.81347312102E+03  0.50400001928E-02 0. -1.
</event>
<event>
 5   0  0.6539134E-05  0.1688611E+04  0.7818609E-02  0.8767887E-01
       -1   -1    0    0    0  501  0.00000000000E+00  0.00000000000E+00  0.65476174780E+03  0.65476174782E+03  0.50400001928E-02 0.  1.
        1   -1    0    0  501    0  0.00000000000E+00  0.00000000000E+00 -0.10887188662E+04  0.10887188662E+04  0.50400001928E-02 0. -1.
    10030    2    1    2    0    0  0.00000000000E+00  0.00000000000E+00 -0.43395711835E+03  0.17434806140E+04  0.16886106333E+04 0.  0.
        2    1    3    3  502    0 -0.48695678937E+03  0.62452861530E+03  0.85259414904E+02  0.79651244427E+03  0.25500000920E-02 0. -1.
       -2    1    3    3    0  502  0.48695678937E+03 -0.62452861530E+03 -0.51921653326E+03  0.94696816972E+03  0.25500000920E-02 0.  1.
</event>
<event>
 5   0  0.1255362E-04  0.1705223E+04  0.7818609E-02  0.8758391E-01
       -2   -1    0    0    0  501  0.00000000000E+00  0.00000000000E+00  0.68610037621E+03  0.68610037622E+03  0.25500000920E-02 0. -1.
        2   -1    0    0  501    0  0.00000000000E+00  0.00000000000E+00 -0.10595330378E+04  0.10595330378E+04  0.25500000920E-02 0.  1.
    10030    2    1    2    0    0  0.00000000000E+00  0.00000000000E+00 -0.37343266157E+03  0.17456334140E+04  0.17052225847E+04 0.  0.
        1    1    3    3  502    0 -0.13278166394E+03  0.46556415913E+03 -0.90517827807E+03  0.10265128697E+04  0.50400001928E-02 0.  1.
       -1    1    3    3    0  502  0.13278166394E+03 -0.46556415913E+03  0.53174561650E+03  0.71912054430E+03  0.50400001928E-02 0. -1.
</event>
<event>
 5   0  0.6564887E-05  0.1700234E+04  0.7818609E-02  0.8761231E-01
       -1   -1    0    0    0  501  0.00000000000E+00  0.00000000000E+00  0.69792716726E+03  0.69792716728E+03  0.50400001928E-02 0.  1.
        1   -1    0    0  501    0  0.00000000000E+00  0.00000000000E+00 -0.10354927580E+04  0.10354927581E+04  0.50400001928E-02 0. -1.
    10030    2    1    2    0    0  0.00000000000E+00  0.00000000000E+00 -0.33756559078E+03  0.17334199253E+04  0.17002335456E+04 0.  0.
        4    1    3    3  502    0 -0.23088623168E+03 -0.67807856560E+02 -0.10000442155E+04  0.10285895213E+04  0.12699999809E+01 0. -1.
       -4    1    3    3    0  502  0.23088623168E+03  0.67807856560E+02  0.66247862472E+03  0.70483040407E+03  0.12699999809E+01 0.  1.
</event>
<event>
 5   0  0.1393870E-04  0.1662412E+04  0.7818609E-02  0.8783098E-01
        2   -1    0    0  501    0  0.00000000000E+00  0.00000000000E+00  0.17343002083E+04  0.17343002083E+04  0.25500000920E-02 0.  1.
       -2   -1    0    0    0  501  0.00000000000E+00  0.00000000000E+00 -0.39837573561E+03  0.39837573562E+03  0.25500000920E-02 0. -1.
    10030    2    1    2    0    0  0.00000000000E+00  0.00000000000E+00  0.13359244727E+04  0.21326759440E+04  0.16624116473E+04 0.  0.
        3    1    3    3  502    0 -0.56094371489E+03 -0.49763203789E+03  0.11280277065E+04  0.13545264905E+04  0.10100000352E+00 0.  1.
       -3    1    3    3    0  502  0.56094371489E+03  0.49763203789E+03  0.20789676619E+03  0.77814945351E+03  0.10100000352E+00 0. -1.
</event>
<event>
 5   0  0.6564887E-05  0.1690209E+04  0.7818609E-02  0.8766968E-01
       -1   -1    0    0    0  501  0.00000000000E+00  0.00000000000E+00  0.42385762473E+03  0.42385762476E+03  0.50400001928E-02 0. -1.
        1   -1    0    0  501    0  0.00000000000E+00  0.00000000000E+00 -0.16850043013E+04  0.16850043013E+04  0.50400001928E-02 0.  1.
    10030    2    1    2    0    0  0.00000000000E+00  0.00000000000E+00 -0.12611466766E+04  0.21088619261E+04  0.16902093608E+04 0.  0.
        4    1    3    3  502    0 -0.21514436683E+03  0.36875337321E+03  0.27941658565E+03  0.51023660204E+03  0.12699999809E+01 0. -1.
       -4    1    3    3    0  502  0.21514436683E+03 -0.36875337321E+03 -0.15405632622E+04  0.15986253240E+04  0.12699999809E+01 0.  1.
</event>
<event>
 5   0  0.1393870E-04  0.1740910E+04  0.7818609E-02  0.8738370E-01
        2   -1    0    0  501    0  0.00000000000E+00  0.00000000000E+00  0.10452615407E+04  0.10452615407E+04  0.25500000920E-02 0. -1.
       -2   -1    0    0    0  501  0.00000000000E+00  0.00000000000E+00 -0.72488268157E+03  0.72488268157E+03  0.25500000920E-02 0.  1.
    10030    2    1    2    0    0  0.00000000000E+00  0.00000000000E+00  0.32037885918E+03  0.17701442223E+04  0.17409100937E+04 0.  0.
        3    1    3    3  502    0  0.43489421041E+03 -0.67648879370E+03  0.49883156203E+03  0.94636303802E+03  0.10100000352E+00 0. -1.
       -3    1    3    3    0  502 -0.43489421041E+03  0.67648879370E+03 -0.17845270285E+03  0.82378118430E+03  0.10100000352E+00 0.  1.
</event>
<event>
 5   0  0.1285639E-04  0.1663864E+04  0.7818609E-02  0.8782247E-01
        2   -1    0    0  501    0  0.00000000000E+00  0.00000000000E+00  0.12230365818E+04  0.12230365818E+04  0.25500000920E-02 0. -1.
       -2   -1    0    0    0  501  0.00000000000E+00  0.00000000000E+00 -0.56589550936E+03  0.56589550936E+03  0.25500000920E-02 0.  1.
    10030    2    1    2    0    0  0.00000000000E+00  0.00000000000E+00  0.65714107248E+03  0.17889320912E+04  0.16638640683E+04 0.  0.
        4    1    3    3  502    0 -0.16709144852E+03 -0.12538788295E+03 -0.53723460514E+03  0.57642372194E+03  0.12699999809E+01 0.  1.
       -4    1    3    3    0  502  0.16709144852E+03  0.12538788295E+03  0.11943756776E+04  0.12125083693E+04  0.12699999809E+01 0. -1.
</event>
<event>
 5   0  0.1269175E-04  0.1695982E+04  0.7818609E-02  0.8763659E-01
       -2   -1    0    0    0  501  0.00000000000E+00  0.00000000000E+00  0.49150073390E+03  0.49150073391E+03  0.25500000920E-02 0. -1.
        2   -1    0    0  501    0  0.00000000000E+00  0.00000000000E+00 -0.14630470320E+04  0.14630470320E+04  0.25500000920E-02 0.  1.
    10030    2    1    2    0    0  0.00000000000E+00  0.00000000000E+00 -0.97154629812E+03  0.19545477659E+04  0.16959819456E+04 0.  0.
        2    1    3    3  502    0 -0.56541857562E+03  0.60057234002E+02 -0.12107998317E+04  0.13376626142E+04  0.25500000920E-02 0.  1.
       -2    1    3    3    0  502  0.56541857562E+03 -0.60057234002E+02  0.23925353361E+03  0.61688515168E+03  0.25500000920E-02 0. -1.
</event>
<event>
 5   0  0.1269175E-04  0.1655955E+04  0.7818609E-02  0.8786892E-01
       -2   -1    0    0    0  501  0.00000000000E+00  0.00000000000E+00  0.49632237911E+03  0.49632237911E+03  0.25500000920E-02 0.  1.
        2   -1    0    0  501    0  0.00000000000E+00  0.00000000000E+00 -0.13812522409E+04  0.13812522409E+04  0.25500000920E-02 0. -1.
    10030    2    1    2    0    0  0.00000000000E+00  0.00000000000E+00 -0.88492986179E+03  0.18775746200E+04  0.16559545868E+04 0.  0.
        2    1    3    3  502    0 -0.48028603403E+03 -0.33065488480E+03 -0.11089606500E+04  0.12529170167E+04  0.25500000920E-02 0. -1.
       -2    1    3    3    0  502  0.48028603403E+03  0.33065488480E+03  0.22403078824E+03  0.62465760334E+03  0.25500000920E-02 0.  1.
</event>
<event>
 5   0  0.6564887E-05  0.1692328E+04  0.7818609E-02  0.8765752E-01
        1   -1    0    0  501    0  0.00000000000E+00  0.00000000000E+00  0.90278364057E+03  0.90278364059E+03  0.50400001928E-02 0.  1.
       -1   -1    0    0    0  501  0.00000000000E+00  0.00000000000E+00 -0.79309554251E+03  0.79309554253E+03  0.50400001928E-02 0. -1.
    10030    2    1    2    0    0  0.00000000000E+00  0.00000000000E+00  0.10968809806E+03  0.16958791831E+04  0.16923281966E+04 0.  0.
        4    1    3    3  502    0 -0.60634008404E+02 -0.40527050697E+03  0.79671589401E+03  0.89592326427E+03  0.12699999809E+01 0.  1.
       -4    1    3    3    0  502  0.60634008404E+02  0.40527050697E+03 -0.68702779595E+03  0.79995591885E+03  0.12699999809E+01 0. -1.
</event>
<event>
 5   0  0.1269175E-04  0.1699895E+04  0.7818609E-02  0.8761424E-01
       -2   -1    0    0    0  501  0.00000000000E+00  0.00000000000E+00  0.62713619446E+03  0.62713619447E+03  0.25500000920E-02 0.  1.
        2   -1    0    0  501    0  0.00000000000E+00  0.00000000000E+00 -0.11519194853E+04  0.11519194853E+04  0.25500000920E-02 0. -1.
    10030    2    1    2    0    0  0.00000000000E+00  0.00000000000E+00 -0.52478329088E+03  0.17790556798E+04  0.16998945878E+04 0.  0.
        2    1    3    3  502    0  0.26659202551E+03 -0.18292901358E+03 -0.10850475843E+04  0.11321937080E+04  0.25500000920E-02 0. -1.
       -2    1    3    3    0  502 -0.26659202551E+03  0.18292901358E+03  0.56026429347E+03  0.64686197184E+03  0.25500000920E-02 0.  1.
</event>
<event>
 5   0  0.1333546E-04  0.1694692E+04  0.7818609E-02  0.8764398E-01
        2   -1    0    0  501    0  0.00000000000E+00  0.00000000000E+00  0.15427679430E+04  0.15427679430E+04  0.25500000920E-02 0. -1.
       -2   -1    0    0    0  501  0.00000000000E+00  0.00000000000E+00 -0.46539412197E+03  0.46539412197E+03  0.25500000920E-02 0.  1.
    10030    2    1    2    0    0  0.00000000000E+00  0.00000000000E+00  0.10773738211E+04  0.20081620650E+04  0.16946918685E+04 0.  0.
        5    1    3    3  502    0 -0.42192763346E+03 -0.66471274184E+03  0.90984437540E+03  0.12032060648E+04  0.46999998093E+01 0. -1.
       -5    1    3    3    0  502  0.42192763346E+03  0.66471274184E+03  0.16752944567E+03  0.80495600017E+03  0.46999998093E+01 0.  1.
</event>
<event>
 5   0  0.1333546E-04  0.1713793E+04  0.7818609E-02  0.8753536E-01
        2   -1    0    0  501    0  0.00000000000E+00  0.00000000000E+00  0.82708248028E+03  0.82708248028E+03  0.25500000920E-02 0. -1.
       -2   -1    0    0    0  501  0.00000000000E+00  0.00000000000E+00 -0.88778545360E+03  0.88778545360E+03  0.25500000920E-02 0.  1.
    10030    2    1    2    0    0  0.00000000000E+00  0.00000000000E+00 -0.60702973323E+02  0.17148679339E+04  0.17137932138E+04 0.  0.
        5    1    3    3  502    0  0.58610847977E+03 -0.34106139809E+03 -0.55451552846E+03  0.87598834959E+03  0.46999998093E+01 0. -1.
       -5    1    3    3    0  502 -0.58610847977E+03  0.34106139809E+03  0.49381255513E+03  0.83887958429E+03  0.46999998093E+01 0.  1.
</event>
<event>
 5   0  0.1393870E-04  0.1697844E+04  0.7818609E-02  0.8762595E-01
       -2   -1    0    0    0  501  0.00000000000E+00  0.00000000000E+00  0.96294166249E+03  0.96294166249E+03  0.25500000920E-02 0.  1.
        2   -1    0    0  501    0  0.00000000000E+00  0.00000000000E+00 -0.74840285014E+03  0.74840285015E+03  0.25500000920E-02 0. -1.
    10030    2    1    2    0    0  0.00000000000E+00  0.00000000000E+00  0.21453881235E+03  0.17113445126E+04  0.16978436733E+04 0.  0.
        3    1    3    3  502    0 -0.43477373656E+03 -0.74696125555E+02  0.83833714264E+03  0.94732090028E+03  0.10100000352E+00 0.  1.
       -3    1    3    3    0  502  0.43477373656E+03  0.74696125555E+02 -0.62379833029E+03  0.76402361236E+03  0.10100000352E+00 0. -1.
</event>
<event>
 5   0  0.6834837E-05  0.1703226E+04  0.7818609E-02  0.8759527E-01
        1   -1    0    0  501    0  0.00000000000E+00  0.00000000000E+00  0.13180382072E+04  0.13180382072E+04  0.50400001928E-02 0.  1.
       -1   -1    0    0    0  501  0.00000000000E+00  0.00000000000E+00 -0.55024566660E+03  0.55024566662E+03  0.50400001928E-02 0. -1.
    10030    2    1    2    0    0  0.00000000000E+00  0.00000000000E+00  0.76779254059E+03  0.18682838738E+04  0.17032261294E+04 0.  0.
        5    1    3    3  502    0 -0.18103348254E+03  0.63991424085E+03  0.96738515848E+03  0.11739333424E+04  0.46999998093E+01 0.  1.
       -5    1    3    3    0  502  0.18103348254E+03 -0.63991424085E+03 -0.19959261789E+03  0.69435053147E+03  0.46999998093E+01 0. -1.
</event>
<event>
 5   0  0.6601906E-05  0.1693841E+04  0.7818609E-02  0.8764885E-01
       -1   -1    0    0    0  501  0.00000000000E+00  0.00000000000E+00  0.48188230530E+03  0.48188230532E+03  0.50400001928E-02 0. -1.
        1   -1    0    0  501    0  0.00000000000E+00  0.00000000000E+00 -0.14884838732E+04  0.14884838732E+04  0.50400001928E-02 0.  1.
    10030    2    1    2    0    0  0.00000000000E+00  0.00000000000E+00 -0.10066015679E+04  0.19703661785E+04  0.16938406539E+04 0.  0.
        1    1    3    3  502    0 -0.15962895571E+03  0.64535192551E+03 -0.11136637413E+04  0.12969993986E+04  0.50400001928E-02 0.  1.
       -1    1    3    3    0  502  0.15962895571E+03 -0.64535192551E+03  0.10706217343E+03  0.67336677990E+03  0.50400001928E-02 0. -1.
</event>
<event>
 5   0  0.1393870E-04  0.1703306E+04  0.7818609E-02  0.8759481E-01
       -2   -1    0    0    0  501  0.00000000000E+00  0.00000000000E+00  0.58075937158E+03  0.58075937159E+03  0.25500000920E-02 0. -1.
        2   -1    0    0  501    0  0.00000000000E+00  0.00000000000E+00 -0.12489043499E+04  0.12489043499E+04  0.25500000920E-02 0.  1.
    10030    2    1    2    0    0  0.00000000000E+00  0.00000000000E+00 -0.66814497833E+03  0.18296637215E+04  0.17033060857E+04 0.  0.
        3    1    3    3  502    0  0.37991861364E+03  0.54803539320E+03 -0.90311817603E+03  0.11226323509E+04  0.10100000352E+00 0.  1.
       -3    1    3    3    0  502 -0.37991861364E+03 -0.54803539320E+03  0.23497319771E+03  0.70703137061E+03  0.10100000352E+00 0. -1.
</event>
<event>
 5   0  0.6539134E-05  0.1696552E+04  0.7818609E-02  0.8763333E-01
        1   -1    0    0  501    0  0.00000000000E+00  0.00000000000E+00  0.17832859302E+04  0.17832859302E+04  0.50400001928E-02 0.  1.
       -1   -1    0    0    0  501  0.00000000000E+00  0.00000000000E+00 -0.40350926818E+03  0.40350926821E+03  0.50400001928E-02 0. -1.
    10030    2    1    2    0    0  0.00000000000E+00  0.00000000000E+00  0.13797766621E+04  0.21867951985E+04  0.16965522694E+04 0.  0.
        2    1    3    3  502    0  0.41116749303E+03  0.28640956406E+03 -0.19235402345E+03  0.53673943031E+03  0.25500000920E-02 0. -1.
       -2    1    3    3    0  502 -0.41116749303E+03 -0.28640956406E+03  0.15721306855E+04  0.16500557682E+04  0.25500000920E-02 0.  1.
</event>
<event>
 5   0  0.1285639E-04  0.1711157E+04  0.7818609E-02  0.8755027E-01
        2   -1    0    0  501    0  0.00000000000E+00  0.00000000000E+00  0.14692530991E+04  0.14692530991E+04  0.25500000920E-02 0. -1.
       -2   -1    0    0    0  501  0.00000000000E+00  0.00000000000E+00 -0.49822213490E+03  0.49822213490E+03  0.25500000920E-02 0.  1.
    10030    2    1    2    0    0  0.00000000000E+00  0.00000000000E+00  0.97103096416E+03  0.19674752340E+04  0.17111568201E+04 0.  0.
        4    1    3    3  502    0 -0.50608070407E+03  0.32840650332E+03 -0.21202514151E+03  0.63947226991E+03  0.12699999809E+01 0.  1.
       -4    1    3    3    0  502  0.50608070407E+03 -0.32840650332E+03  0.11830561057E+04  0.13280029641E+04  0.12699999809E+01 0. -1.
</event>
<event>
 5   0  0.6564887E-05  0.1704333E+04  0.7818609E-02  0.8758897E-01
        1   -1    0    0  501    0  0.00000000000E+00  0.00000000000E+00  0.67994521766E+03  0.67994521768E+03  0.50400001928E-02 0. -1.
       -1   -1    0    0    0  501  0.00000000000E+00  0.00000000000E+00 -0.10680093958E+04  0.10680093958E+04  0.50400001928E-02 0.  1.
    10030    2    1    2    0    0  0.00000000000E+00  0.00000000000E+00 -0.38806417813E+03  0.17479546135E+04  0.17043331612E+04 0.  0.
        4    1    3    3  502    0  0.46776952212E+03  0.20279204176E+03  0.50627194969E+03  0.71850249685E+03  0.12699999809E+01 0.  1.
       -4    1    3    3    0  502 -0.46776952212E+03 -0.20279204176E+03 -0.89433612783E+03  0.10294521166E+04  0.12699999809E+01 0. -1.
</event>
<event>
 5   0  0.1285639E-04  0.1608440E+04  0.7818609E-02  0.8815380E-01
       -2   -1    0    0    0  501  0.00000000000E+00  0.00000000000E+00  0.79693231449E+03  0.79693231449E+03  0.25500000920E-02 0.  1.
        2   -1    0    0  501    0  0.00000000000E+00  0.00000000000E+00 -0.81157435790E+03  0.81157435790E+03  0.25500000920E-02 0. -1.
    10030    2    1    2    0    0  0.00000000000E+00  0.00000000000E+00 -0.14642043411E+02  0.16085066724E+04  0.16084400286E+04 0.  0.
        4    1    3    3  502    0 -0.22102507014E+03  0.41444407079E+03 -0.66015144687E+03  0.81019597330E+03  0.12699999809E+01 0. -1.
       -4    1    3    3    0  502  0.22102507014E+03 -0.41444407079E+03  0.64550940346E+03  0.79831069910E+03  0.12699999809E+01 0.  1.
</event>
<event>
 5   0  0.1255362E-04  0.1697872E+04  0.7818609E-02  0.8762579E-01
        2   -1    0    0  501    0  0.00000000000E+00  0.00000000000E+00  0.13591689958E+04  0.13591689958E+04  0.25500000920E-02 0.  1.
       -2   -1    0    0    0  501  0.00000000000E+00  0.00000000000E+00 -0.53024455107E+03  0.53024455108E+03  0.25500000920E-02 0. -1.
    10030    2    1    2    0    0  0.00000000000E+00  0.00000000000E+00  0.82892444469E+03  0.18894135468E+04  0.16978715546E+04 0.  0.
        1    1    3    3  502    0  0.77429182000E+02  0.36458924158E+03  0.12632485230E+04  0.13170867186E+04  0.50400001928E-02 0.  1.
       -1    1    3    3    0  502 -0.77429182000E+02 -0.36458924158E+03 -0.43432407833E+03  0.57232682826E+03  0.50400001928E-02 0. -1.
</event>
<event>
 5   0  0.1269175E-04  0.1698352E+04  0.7818609E-02  0.8762305E-01
       -2   -1    0    0    0  501  0.00000000000E+00  0.00000000000E+00  0.98042404250E+03  0.98042404250E+03  0.25500000920E-02 0.  1.
        2   -1    0    0  501    0  0.00000000000E+00  0.00000000000E+00 -0.73549820669E+03  0.73549820669E+03  0.25500000920E-02 0. -1.
    10030    2    1    2    0    0  0.00000000000E+00  0.00000000000E+00  0.24492583581E+03  0.17159222492E+04  0.16983522898E+04 0.  0.
        2    1    3    3  502    0  0.15390905846E+03 -0.22267076860E+03  0.93566841139E+03  0.97403575168E+03  0.25500000920E-02 0.  1.
       -2    1    3    3    0  502 -0.15390905846E+03  0.22267076860E+03 -0.69074257558E+03  0.74188649751E+03  0.25500000920E-02 0. -1.
</event>
<event>
 5   0  0.6615842E-05  0.1699885E+04  0.7818609E-02  0.8761430E-01
        1   -1    0    0  501    0  0.00000000000E+00  0.00000000000E+00  0.16027237406E+04  0.16027237406E+04  0.50400001928E-02 0. -1.
       -1   -1    0    0    0  501  0.00000000000E+00  0.00000000000E+00 -0.45073398662E+03  0.45073398665E+03  0.50400001928E-02 0.  1.
    10030    2    1    2    0    0  0.00000000000E+00  0.00000000000E+00  0.11519897539E+04  0.20534577272E+04  0.16998847738E+04 0.  0.
        3    1    3    3  502    0  0.51419356709E+03  0.47055581475E+02 -0.23955403489E+03  0.56920593638E+03  0.10100000352E+00 0.  1.
       -3    1    3    3    0  502 -0.51419356709E+03 -0.47055581475E+02  0.13915437888E+04  0.14842517908E+04  0.10100000352E+00 0. -1.
</event>
<event>
 5   0  0.6601906E-05  0.1700351E+04  0.7818609E-02  0.8761164E-01
        1   -1    0    0  501    0  0.00000000000E+00  0.00000000000E+00  0.13859139506E+04  0.13859139506E+04  0.50400001928E-02 0.  1.
       -1   -1    0    0    0  501  0.00000000000E+00  0.00000000000E+00 -0.52153166877E+03  0.52153166880E+03  0.50400001928E-02 0. -1.
    10030    2    1    2    0    0  0.00000000000E+00  0.00000000000E+00  0.86438228182E+03  0.19074456194E+04  0.17003505703E+04 0.  0.
        1    1    3    3  502    0  0.38094482002E+03 -0.96949603668E+02  0.12778492471E+04  0.13369431102E+04  0.50400001928E-02 0.  1.
       -1    1    3    3    0  502 -0.38094482002E+03  0.96949603668E+02 -0.41346696531E+03  0.57050250918E+03  0.50400001928E-02 0. -1.
</event>
<event>
 5   0  0.6539134E-05  0.1685530E+04  0.7818609E-02  0.8769660E-01
        1   -1    0    0  501    0  0.00000000000E+00  0.00000000000E+00  0.11057255872E+04  0.11057255872E+04  0.50400001928E-02 0.  1.
       -1   -1    0    0    0  501  0.00000000000E+00  0.00000000000E+00 -0.64234132635E+03  0.64234132637E+03  0.50400001928E-02 0. -1.
    10030    2    1    2    0    0  0.00000000000E+00  0.00000000000E+00  0.46338426083E+03  0.17480669136E+04  0.16855304688E+04 0.  0.
        2    1    3    3  502    0 -0.80874982431E+03 -0.18551984758E+03  0.78708703427E+02  0.83348002505E+03  0.25500000920E-02 0. -1.
       -2    1    3    3    0  502  0.80874982431E+03  0.18551984758E+03  0.38467555740E+03  0.91458688850E+03  0.25500000920E-02 0.  1.
</event>
<event>
 5   0  0.1269175E-04  0.1698725E+04  0.7818609E-02  0.8762092E-01
        2   -1    0    0  501    0  0.00000000000E+00  0.00000000000E+00  0.23328520851E+04  0.23328520851E+04  0.25500000920E-02 0.  1.
       -2   -1    0    0    0  501  0.00000000000E+00  0.00000000000E+00 -0.30924243262E+03  0.30924243263E+03  0.25500000920E-02 0. -1.
    10030    2    1    2    0    0  0.00000000000E+00  0.00000000000E+00  0.20236096524E+04  0.26420945177E+04  0.16987252323E+04 0.  0.
        2    1    3    3  502    0 -0.38613648305E+03 -0.73901621894E+03  0.76019290815E+03  0.11283348851E+04  0.25500000920E-02 0. -1.
       -2    1    3    3    0  502  0.38613648305E+03  0.73901621894E+03  0.12634167443E+04  0.15137596326E+04  0.25500000920E-02 0.  1.
</event>
<event>
 5   0  0.1333546E-04  0.1697748E+04  0.7818609E-02  0.8762650E-01
        2   -1    0    0  501    0  0.00000000000E+00  0.00000000000E+00  0.12367450736E+04  0.12367450736E+04  0.25500000920E-02 0.  1.
       -2   -1    0    0    0  501  0.00000000000E+00  0.00000000000E+00 -0.58264814056E+03  0.58264814057E+03  0.25500000920E-02 0. -1.
    10030    2    1    2    0    0  0.00000000000E+00  0.00000000000E+00  0.65409693300E+03  0.18193932141E+04  0.16977481762E+04 0.  0.
        5    1    3    3  502    0  0.48418512639E+03  0.69638481845E+03  0.36383084918E+03  0.92292038053E+03  0.46999998093E+01 0.  1.
       -5    1    3    3    0  502 -0.48418512639E+03 -0.69638481845E+03  0.29026608382E+03  0.89647283361E+03  0.46999998093E+01 0. -1.
</event>
<event>
 5   0  0.6601906E-05  0.1750770E+04  0.7818609E-02  0.8732927E-01
        1   -1    0    0  501    0  0.00000000000E+00  0.00000000000E+00  0.10733840816E+04  0.10733840816E+04  0.50400001928E-02 0.  1.
       -1   -1    0    0    0  501  0.00000000000E+00  0.00000000000E+00 -0.71390929512E+03  0.71390929513E+03  0.50400001928E-02 0. -1.
    10030    2    1    2    0    0  0.00000000000E+00  0.00000000000E+00  0.35947478647E+03  0.17872933767E+04  0.17507699713E+04 0.  0.
        1    1    3    3  502    0  0.76112891601E+03 -0.29114420719E+03  0.50612050468E+03  0.95929147887E+03  0.50400001928E-02 0.  1.
       -1    1    3    3    0  502 -0.76112891601E+03  0.29114420719E+03 -0.14664571821E+03  0.82800189786E+03  0.50400001928E-02 0. -1.
</event>
<event>
 5   0  0.1255362E-04  0.1706253E+04  0.7818609E-02  0.8757806E-01
       -2   -1    0    0    0  501  0.00000000000E+00  0.00000000000E+00  0.47845782911E+03  0.47845782912E+03  0.25500000920E-02 0.  1.
        2   -1    0    0  501    0  0.00000000000E+00  0.00000000000E+00 -0.15211897766E+04  0.15211897766E+04  0.25500000920E-02 0. -1.
    10030    2    1    2    0    0  0.00000000000E+00  0.00000000000E+00 -0.10427319475E+04  0.19996476057E+04  0.17062533905E+04 0.  0.
        1    1    3    3  502    0  0.66507015523E+03  0.26881333056E+02 -0.11467804313E+04  0.13259510832E+04  0.50400001928E-02 0. -1.
       -1    1    3    3    0  502 -0.66507015523E+03 -0.26881333056E+02  0.10404848380E+03  0.67369652251E+03  0.50400001928E-02 0.  1.
</event>
<event>
 5   0  0.6601906E-05  0.1686341E+04  0.7818609E-02  0.8769193E-01
       -1   -1    0    0    0  501  0.00000000000E+00  0.00000000000E+00  0.17514626353E+04  0.17514626354E+04  0.50400001928E-02 0. -1.
        1   -1    0    0  501    0  0.00000000000E+00  0.00000000000E+00 -0.40591015628E+03  0.40591015631E+03  0.50400001928E-02 0.  1.
    10030    2    1    2    0    0  0.00000000000E+00  0.00000000000E+00  0.13455524791E+04  0.21573727917E+04  0.16863409763E+04 0.  0.
        1    1    3    3  502    0  0.74815827362E+03  0.36156080738E+03  0.48974175744E+03  0.96452786835E+03  0.50400001928E-02 0.  1.
       -1    1    3    3    0  502 -0.74815827362E+03 -0.36156080738E+03  0.85581072162E+03  0.11928449233E+04  0.50400001928E-02 0. -1.
</event>
<event>
 5   0  0.1333546E-04  0.1702993E+04  0.7818609E-02  0.8759659E-01
        2   -1    0    0  501    0  0.00000000000E+00  0.00000000000E+00  0.17059422578E+04  0.17059422578E+04  0.25500000920E-02 0. -1.
       -2   -1    0    0    0  501  0.00000000000E+00  0.00000000000E+00 -0.42501225605E+03  0.42501225606E+03  0.25500000920E-02 0.  1.
    10030    2    1    2    0    0  0.00000000000E+00  0.00000000000E+00  0.12809300018E+04  0.21309545139E+04  0.17029930918E+04 0.  0.
        5    1    3    3  502    0  0.56724801417E+03 -0.50459830387E+03  0.11228803702E+04  0.13554601336E+04  0.46999998093E+01 0. -1.
       -5    1    3    3    0  502 -0.56724801417E+03  0.50459830387E+03  0.15804963153E+03  0.77549438030E+03  0.46999998093E+01 0.  1.
</event>
<event>
 5   0  0.1255362E-04  0.1701263E+04  0.7818609E-02  0.8760644E-01
       -2   -1    0    0    0  501  0.00000000000E+00  0.00000000000E+00  0.93906500887E+03  0.93906500887E+03  0.25500000920E-02 0. -1.
        2   -1    0    0  501    0  0.00000000000E+00  0.00000000000E+00 -0.77052610364E+03  0.77052610364E+03  0.25500000920E-02 0.  1.
    10030    2    1    2    0    0  0.00000000000E+00  0.00000000000E+00  0.16853890523E+03  0.17095911125E+04  0.17012631805E+04 0.  0.
        1    1    3    3  502    0  0.73224110900E+02 -0.65005616897E+03  0.63065831471E+03  0.90866093961E+03  0.50400001928E-02 0. -1.
       -1    1    3    3    0  502 -0.73224110900E+02  0.65005616897E+03 -0.46211940948E+03  0.80093017291E+03  0.50400001928E-02 0.  1.
</event>
<event>
 5   0  0.1333546E-04  0.1683387E+04  0.7818609E-02  0.8770896E-01
        2   -1    0    0  501    0  0.00000000000E+00  0.00000000000E+00  0.86240599145E+03  0.86240599145E+03  0.25500000920E-02 0. -1.
       -2   -1    0    0    0  501  0.00000000000E+00  0.00000000000E+00 -0.82147861758E+03  0.82147861758E+03  0.25500000920E-02 0.  1.
    10030    2    1    2    0    0  0.00000000000E+00  0.00000000000E+00  0.40927373870E+02  0.16838846090E+04  0.16833871589E+04 0.  0.
        5    1    3    3  502    0 -0.35914885171E+01  0.67045969938E+03  0.52943315350E+03  0.85431297620E+03  0.46999998093E+01 0. -1.
       -5    1    3    3    0  502  0.35914885171E+01 -0.67045969938E+03 -0.48850577963E+03  0.82957163284E+03  0.46999998093E+01 0.  1.
</event>
<event>
 5   0  0.1333546E-04  0.1697999E+04  0.7818609E-02  0.8762506E-01
        2   -1    0    0  501    0  0.00000000000E+00  0.00000000000E+00  0.16837690701E+04  0.16837690701E+04  0.25500000920E-02 0.  1.
       -2   -1    0    0    0  501  0.00000000000E+00  0.00000000000E+00 -0.42808739404E+03  0.42808739404E+03  0.25500000920E-02 0. -1.
    10030    2    1    2    0    0  0.00000000000E+00  0.00000000000E+00  0.12556816761E+04  0.21118564641E+04  0.16979991913E+04 0.  0.
        5    1    3    3  502    0  0.37082520521E+03  0.50133790692E+03 -0.88712189532E+02  0.62987536252E+03  0.46999998093E+01 0. -1.
       -5    1    3    3    0  502 -0.37082520521E+03 -0.50133790692E+03  0.13443938656E+04  0.14819811016E+04  0.46999998093E+01 0.  1.
</event>
<event>
 5   0  0.6539134E-05  0.1653362E+04  0.7818609E-02  0.8788420E-01
       -1   -1    0    0    0  501  0.00000000000E+00  0.00000000000E+00  0.55066135361E+03  0.55066135363E+03  0.50400001928E-02 0.  1.
        1   -1    0    0  501    0  0.00000000000E+00  0.00000000000E+00 -0.12410565175E+04  0.12410565175E+04  0.50400001928E-02 0. -1.
    10030    2    1    2    0    0  0.00000000000E+00  0.00000000000E+00 -0.69039516390E+03  0.17917178712E+04  0.16533624671E+04 0.  0.
        2    1    3    3  502    0  0.10104322444E+03 -0.69888326747E+03  0.12060172377E+03  0.71637443459E+03  0.25500000920E-02 0.  1.
       -2    1    3    3    0  502 -0.10104322444E+03  0.69888326747E+03 -0.81099688767E+03  0.10753434366E+04  0.25500000920E-02 0. -1.
</event>
<event>
 5   0  0.1255362E-04  0.1697103E+04  0.7818609E-02  0.8763018E-01
       -2   -1    0    0    0  501  0.00000000000E+00  0.00000000000E+00  0.56255464524E+03  0.56255464525E+03  0.25500000920E-02 0. -1.
        2   -1    0    0  501    0  0.00000000000E+00  0.00000000000E+00 -0.12799466691E+04  0.12799466691E+04  0.25500000920E-02 0.  1.
    10030    2    1    2    0    0  0.00000000000E+00  0.00000000000E+00 -0.71739202384E+03  0.18425013143E+04  0.16971033491E+04 0.  0.
        1    1    3    3  502    0  0.48106403782E+03  0.29145490504E+03 -0.10484806091E+04  0.11898235826E+04  0.50400001928E-02 0.  1.
       -1    1    3    3    0  502 -0.48106403782E+03 -0.29145490504E+03  0.33108858523E+03  0.65267773170E+03  0.50400001928E-02 0. -1.
</event>
<event>
 5   0  0.6539134E-05  0.1686340E+04  0.7818609E-02  0.8769193E-01
        1   -1    0    0  501    0  0.00000000000E+00  0.00000000000E+00  0.68213552392E+03  0.68213552394E+03  0.50400001928E-02 0. -1.
       -1   -1    0    0    0  501  0.00000000000E+00  0.00000000000E+00 -0.10422210617E+04  0.10422210617E+04  0.50400001928E-02 0.  1.
    10030    2    1    2    0    0  0.00000000000E+00  0.00000000000E+00 -0.36008553775E+03  0.17243565856E+04  0.16863404282E+04 0.  0.
        2    1    3    3  502    0 -0.40613905605E+03 -0.40006481247E+03  0.45519898564E+03  0.72952512195E+03  0.25500000920E-02 0. -1.
       -2    1    3    3    0  502  0.40613905605E+03  0.40006481247E+03 -0.81528452338E+03  0.99483146367E+03  0.25500000920E-02 0.  1.
</event>
<event>
 5   0  0.1285639E-04  0.1703821E+04  0.7818609E-02  0.8759188E-01
       -2   -1    0    0    0  501  0.00000000000E+00  0.00000000000E+00  0.10419793279E+04  0.10419793279E+04  0.25500000920E-02 0.  1.
        2   -1    0    0  501    0  0.00000000000E+00  0.00000000000E+00 -0.69651203087E+03  0.69651203088E+03  0.25500000920E-02 0. -1.
    10030    2    1    2    0    0  0.00000000000E+00  0.00000000000E+00  0.34546729707E+03  0.17384913588E+04  0.17038205749E+04 0.  0.
        4    1    3    3  502    0  0.69875919981E+03 -0.13319914618E+03  0.65104016157E+03  0.96429317987E+03  0.12699999809E+01 0.  1.
       -4    1    3    3    0  502 -0.69875919981E+03  0.13319914618E+03 -0.30557286451E+03  0.77419817895E+03  0.12699999809E+01 0. -1.
</event>
<event>
 5   0  0.6615842E-05  0.1700001E+04  0.7818609E-02  0.8761364E-01
        1   -1    0    0  501    0  0.00000000000E+00  0.00000000000E+00  0.15463345800E+04  0.15463345800E+04  0.50400001928E-02 0.  1.
       -1   -1    0    0    0  501  0.00000000000E+00  0.00000000000E+00 -0.46723446638E+03  0.46723446641E+03  0.50400001928E-02 0. -1.
    10030    2    1    2    0    0  0.00000000000E+00  0.00000000000E+00  0.10791001136E+04  0.20135690464E+04  0.17000009557E+04 0.  0.
        3    1    3    3  502    0 -0.63756028624E+03  0.44071979217E+03  0.95289442935E+03  0.12283016150E+04  0.10100000352E+00 0.  1.
       -3    1    3    3    0  502  0.63756028624E+03 -0.44071979217E+03  0.12620568423E+03  0.78526743134E+03  0.10100000352E+00 0. -1.
</event>
<event>
 5   0  0.1393870E-04  0.1682916E+04  0.7818609E-02  0.8771169E-01
       -2   -1    0    0    0  501  0.00000000000E+00  0.00000000000E+00  0.36183651626E+03  0.36183651627E+03  0.25500000920E-02 0. -1.
        2   -1    0    0  501    0  0.00000000000E+00  0.00000000000E+00 -0.19568262739E+04  0.19568262739E+04  0.25500000920E-02 0.  1.
    10030    2    1    2    0    0  0.00000000000E+00  0.00000000000E+00 -0.15949897576E+04  0.23186627901E+04  0.16829155675E+04 0.  0.
        3    1    3    3  502    0 -0.28311152958E+03 -0.22248196093E+03  0.25033244370E+03  0.43853928409E+03  0.10100000352E+00 0. -1.
       -3    1    3    3    0  502  0.28311152958E+03  0.22248196093E+03 -0.18453222013E+04  0.18801235060E+04  0.10100000352E+00 0.  1.
</event>
<event>
 5   0  0.6564887E-05  0.1696273E+04  0.7818609E-02  0.8763493E-01
        1   -1    0    0  501    0  0.00000000000E+00  0.00000000000E+00  0.41454296275E+03  0.41454296278E+03  0.50400001928E-02 0. -1.
       -1   -1    0    0    0  501  0.00000000000E+00  0.00000000000E+00 -0.17352496947E+04  0.17352496947E+04  0.50400001928E-02 0.  1.
    10030    2    1    2    0    0  0.00000000000E+00  0.00000000000E+00 -0.13207067320E+04  0.21497926575E+04  0.16962730318E+04 0.  0.
        4    1    3    3  502    0 -0.60268280779E+03 -0.15710960155E+03 -0.13899666922E+04  0.15231280353E+04  0.12699999809E+01 0.  1.
       -4    1    3    3    0  502  0.60268280779E+03  0.15710960155E+03  0.69259960220E+02  0.62666462219E+03  0.12699999809E+01 0. -1.
</event>
<event>
 5   0  0.1255362E-04  0.1690185E+04  0.7818609E-02  0.8766982E-01
       -2   -1    0    0    0  501  0.00000000000E+00  0.00000000000E+00  0.52106917145E+03  0.52106917146E+03  0.25500000920E-02 0. -1.
        2   -1    0    0  501    0  0.00000000000E+00  0.00000000000E+00 -0.13706071256E+04  0.13706071256E+04  0.25500000920E-02 0.  1.
    10030    2    1    2    0    0  0.00000000000E+00  0.00000000000E+00 -0.84953795411E+03  0.18916762970E+04  0.16901847465E+04 0.  0.
        1    1    3    3  502    0  0.16273183013E+03  0.48801942763E+02  0.50175926785E+03  0.52974110757E+03  0.50400001928E-02 0. -1.
       -1    1    3    3    0  502 -0.16273183013E+03 -0.48801942763E+02 -0.13512972220E+04  0.13619351894E+04  0.50400001928E-02 0.  1.
</event>
<event>
 5   0  0.6834837E-05  0.1696339E+04  0.7818609E-02  0.8763455E-01
       -1   -1    0    0    0  501  0.00000000000E+00  0.00000000000E+00  0.13351490328E+04  0.13351490328E+04  0.50400001928E-02 0. -1.
        1   -1    0    0  501    0  0.00000000000E+00  0.00000000000E+00 -0.53880974866E+03  0.53880974868E+03  0.50400001928E-02 0.  1.
    10030    2    1    2    0    0  0.00000000000E+00  0.00000000000E+00  0.79633928416E+03  0.18739587815E+04  0.16963387808E+04 0.  0.
        5    1    3    3  502    0  0.36604003644E+03 -0.27575602372E+03  0.11865801697E+04  0.12720146548E+04  0.46999998093E+01 0. -1.
       -5    1    3    3    0  502 -0.36604003644E+03  0.27575602372E+03 -0.39024088556E+03  0.60194412669E+03  0.46999998093E+01 0.  1.
</event>
<event>
 5   0  0.6564887E-05  0.1700749E+04  0.7818609E-02  0.8760937E-01
        1   -1    0    0  501    0  0.00000000000E+00  0.00000000000E+00  0.11653492798E+04  0.11653492798E+04  0.50400001928E-02 0. -1.
       -1   -1    0    0    0  501  0.00000000000E+00  0.00000000000E+00 -0.62053224122E+03  0.62053224124E+03  0.50400001928E-02 0.  1.
    10030    2    1    2    0    0  0.00000000000E+00  0.00000000000E+00  0.54481703855E+03  0.17858815210E+04  0.17007490119E+04 0.  0.
        4    1    3    3  502    0 -0.30961497214E+03  0.22966707860E+03  0.10683251113E+04  0.11357502165E+04  0.12699999809E+01 0. -1.
       -4    1    3    3    0  502  0.30961497214E+03 -0.22966707860E+03 -0.52350807275E+03  0.65013130451E+03  0.12699999809E+01 0.  1.
</event>
<event>
 5   0  0.1393870E-04  0.1697284E+04  0.7818609E-02  0.8762915E-01
        2   -1    0    0  501    0  0.00000000000E+00  0.00000000000E+00  0.18692069263E+04  0.18692069263E+04  0.25500000920E-02 0.  1.
       -2   -1    0    0    0  501  0.00000000000E+00  0.00000000000E+00 -0.38529326699E+03  0.38529326700E+03  0.25500000920E-02 0. -1.
    10030    2    1    2    0    0  0.00000000000E+00  0.00000000000E+00  0.14839136593E+04  0.22545001933E+04  0.16972835277E+04 0.  0.
        3    1    3    3  502    0 -0.22591436898E+02  0.71576187332E+03  0.13468325086E+04  0.15253797064E+04  0.10100000352E+00 0.  1.
       -3    1    3    3    0  502  0.22591436898E+02 -0.71576187332E+03  0.13708115071E+03  0.72912048689E+03  0.10100000352E+00 0. -1.
</event>
<event>
 5   0  0.6834837E-05  0.1700531E+04  0.7818609E-02  0.8761062E-01
       -1   -1    0    0    0  501  0.00000000000E+00  0.00000000000E+00  0.41836748089E+03  0.41836748092E+03  0.50400001928E-02 0.  1.
        1   -1    0    0  501    0  0.00000000000E+00  0.00000000000E+00 -0.17280297749E+04  0.17280297749E+04  0.50400001928E-02 0. -1.
    10030    2    1    2    0    0  0.00000000000E+00  0.00000000000E+00 -0.13096622940E+04  0.21463972559E+04  0.17005310510E+04 0.  0.
        5    1    3    3  502    0  0.18751122053E+03  0.23625174477E+03 -0.16582177118E+04  0.16854327084E+04  0.46999998093E+01 0. -1.
       -5    1    3    3    0  502 -0.18751122053E+03 -0.23625174477E+03  0.34855541779E+03  0.46096454745E+03  0.46999998093E+01 0.  1.
</event>
<event>
 5   0  0.6615842E-05  0.1699817E+04  0.7818609E-02  0.8761469E-01
       -1   -1    0    0    0  501  0.00000000000E+00  0.00000000000E+00  0.10275549201E+04  0.10275549201E+04  0.50400001928E-02 0.  1.
        1   -1    0    0  501    0  0.00000000000E+00  0.00000000000E+00 -0.70297384135E+03  0.70297384137E+03  0.50400001928E-02 0. -1.
    10030    2    1    2    0    0  0.00000000000E+00  0.00000000000E+00  0.32458107878E+03  0.17305287615E+04  0.16998167306E+04 0.  0.
        3    1    3    3  502    0  0.54902712448E+03 -0.71560509758E+02  0.81876081005E+03  0.98839312232E+03  0.10100000352E+00 0.  1.
       -3    1    3    3    0  502 -0.54902712448E+03  0.71560509758E+02 -0.49417973127E+03  0.74213563920E+03  0.10100000352E+00 0. -1.
</event>
<event>
 5   0  0.6539134E-05  0.1702579E+04  0.7818609E-02  0.8759895E-01
       -1   -1    0    0    0  501  0.00000000000E+00  0.00000000000E+00  0.49836572746E+03  0.49836572748E+03  0.50400001928E-02 0.  1.
        1   -1    0    0  501    0  0.00000000000E+00  0.00000000000E+00 -0.14541400090E+04  0.14541400090E+04  0.50400001928E-02 0. -1.
    10030    2    1    2    0    0  0.00000000000E+00  0.00000000000E+00 -0.95577428158E+03  0.19525057365E+04  0.17025786836E+04 0.  0.
        2    1    3    3  502    0  0.42230544953E+03  0.33146044771E+01  0.36976349083E+03  0.56131801901E+03  0.25500000920E-02 0.  1.
       -2    1    3    3    0  502 -0.42230544953E+03 -0.33146044771E+01 -0.13255377724E+04  0.13911877175E+04  0.25500000920E-02 0. -1.
</event>
<event>
 5   0  0.1269175E-04  0.1700641E+04  0.7818609E-02  0.8760999E-01
       -2   -1    0    0    0  501  0.00000000000E+00  0.00000000000E+00  0.66832792763E+03  0.66832792763E+03  0.25500000920E-02 0. -1.
        2   -1    0    0  501    0  0.00000000000E+00  0.00000000000E+00 -0.10818717615E+04  0.10818717615E+04  0.25500000920E-02 0.  1.
    10030    2    1    2    0    0  0.00000000000E+00  0.00000000000E+00 -0.41354383389E+03  0.17501996892E+04  0.17006411877E+04 0.  0.
        2    1    3    3  502    0 -0.30575005239E+03  0.35187192057E+03 -0.93865560699E+03  0.10480321043E+04  0.25500000920E-02 0.  1.
       -2    1    3    3    0  502  0.30575005239E+03 -0.35187192057E+03  0.52511177310E+03  0.70216758489E+03  0.25500000920E-02 0. -1.
</event>
<event>
 5   0  0.6539134E-05  0.1701987E+04  0.7818609E-02  0.8760232E-01
       -1   -1    0    0    0  501  0.00000000000E+00  0.00000000000E+00  0.66971452456E+03  0.66971452458E+03  0.50400001928E-02 0.  1.
        1   -1    0    0  501    0  0.00000000000E+00  0.00000000000E+00 -0.10813411226E+04  0.10813411227E+04  0.50400001928E-02 0. -1.
    10030    2    1    2    0    0  0.00000000000E+00  0.00000000000E+00 -0.41162659808E+03  0.17510556472E+04  0.17019869046E+04 0.  0.
        2    1    3    3  502    0 -0.66591500815E+03  0.52980249579E+03 -0.21353797442E+03  0.87734368929E+03  0.25500000920E-02 0. -1.
       -2    1    3    3    0  502  0.66591500815E+03 -0.52980249579E+03 -0.19808862367E+03  0.87371195794E+03  0.25500000920E-02 0.  1.
</event>
<event>
 5   0  0.6539134E-05  0.1698711E+04  0.7818609E-02  0.8762100E-01
       -1   -1    0    0    0  501  0.00000000000E+00  0.00000000000E+00  0.68250877174E+03  0.68250877176E+03  0.50400001928E-02 0.  1.
        1   -1    0    0  501    0  0.00000000000E+00  0.00000000000E+00 -0.10569902896E+04  0.10569902896E+04  0.50400001928E-02 0. -1.
    10030    2    1    2    0    0  0.00000000000E+00  0.00000000000E+00 -0.37448151785E+03  0.17394990614E+04  0.16987114461E+04 0.  0.
        2    1    3    3  502    0  0.15454490748E+03 -0.82986012795E+03 -0.28359133794E+03  0.89049200297E+03  0.25500000920E-02 0. -1.
       -2    1    3    3    0  502 -0.15454490748E+03  0.82986012795E+03 -0.90890179904E+02  0.84900705839E+03  0.25500000920E-02 0.  1.
</event>
<event>
 5   0  0.6615842E-05  0.1691897E+04  0.7818609E-02  0.8766000E-01
        1   -1    0    0  501    0  0.00000000000E+00  0.00000000000E+00  0.44080486476E+03  0.44080486479E+03  0.50400001928E-02 0.  1.
       -1   -1    0    0    0  501  0.00000000000E+00  0.00000000000E+00 -0.16234587680E+04  0.16234587680E+04  0.50400001928E-02 0. -1.
    10030    2    1    2    0    0  0.00000000000E+00  0.00000000000E+00 -0.11826539033E+04  0.20642636328E+04  0.16918965958E+04 0.  0.
        3    1    3    3  502    0 -0.28220709646E+03 -0.72021762970E+03 -0.10091502428E+04  0.12715103233E+04  0.10100000352E+00 0.  1.
       -3    1    3    3    0  502  0.28220709646E+03  0.72021762970E+03 -0.17350366047E+03  0.79275330955E+03  0.10100000352E+00 0. -1.
</event>
<event>
 5   0  0.1255362E-04  0.1699682E+04  0.7818609E-02  0.8761546E-01
       -2   -1    0    0    0  501  0.00000000000E+00  0.00000000000E+00  0.50772706729E+03  0.50772706730E+03  0.25500000920E-02 0.  1.
        2   -1    0    0  501    0  0.00000000000E+00  0.00000000000E+00 -0.14224765780E+04  0.14224765780E+04  0.25500000920E-02 0. -1.
    10030    2    1    2    0    0  0.00000000000E+00  0.00000000000E+00 -0.91474951073E+03  0.19302036453E+04  0.16996821600E+04 0.  0.
        1    1    3    3  502    0 -0.70001161855E+03 -0.28332781993E+02  0.88920304080E+02  0.70620523444E+03  0.50400001928E-02 0.  1.
       -1    1    3    3    0  502  0.70001161855E+03  0.28332781993E+02 -0.10036698148E+04  0.12239984109E+04  0.50400001928E-02 0. -1.
</event>
<event>
 5   0  0.1285639E-04  0.1689567E+04  0.7818609E-02  0.8767337E-01
       -2   -1    0    0    0  501  0.00000000000E+00  0.00000000000E+00  0.36903488674E+03  0.36903488675E+03  0.25500000920E-02 0. -1.
        2   -1    0    0  501    0  0.00000000000E+00  0.00000000000E+00 -0.19338532653E+04  0.19338532653E+04  0.25500000920E-02 0.  1.
    10030    2    1    2    0    0  0.00000000000E+00  0.00000000000E+00 -0.15648183786E+04  0.23028881521E+04  0.16895671881E+04 0.  0.
        4    1    3    3  502    0  0.11530215767E+03  0.64206975539E+02 -0.19197144453E+04  0.19242459010E+04  0.12699999809E+01 0.  1.
       -4    1    3    3    0  502 -0.11530215767E+03 -0.64206975539E+02  0.35489606667E+03  0.37864225108E+03  0.12699999809E+01 0. -1.
</event>
<event>
 5   0  0.6601906E-05  0.1698300E+04  0.7818609E-02  0.8762335E-01
        1   -1    0    0  501    0  0.00000000000E+00  0.00000000000E+00  0.96168707786E+03  0.96168707787E+03  0.50400001928E-02 0.  1.
       -1   -1    0    0    0  501  0.00000000000E+00  0.00000000000E+00 -0.74978186092E+03  0.74978186094E+03  0.50400001928E-02 0. -1.
    10030    2    1    2    0    0  0.00000000000E+00  0.00000000000E+00  0.21190521694E+03  0.17114689388E+04  0.16982997696E+04 0.  0.
        1    1    3    3  502    0 -0.25471048111E+03 -0.75979434647E+03 -0.17710017802E+03  0.82068833987E+03  0.50400001928E-02 0. -1.
       -1    1    3    3    0  502  0.25471048111E+03  0.75979434647E+03  0.38900539497E+03  0.89078059894E+03  0.50400001928E-02 0.  1.
</event>
<event>
 5   0  0.1255362E-04  0.1691934E+04  0.7818609E-02  0.8765978E-01
        2   -1    0    0  501    0  0.00000000000E+00  0.00000000000E+00  0.16605216543E+04  0.16605216543E+04  0.25500000920E-02 0. -1.
       -2   -1    0    0    0  501  0.00000000000E+00  0.00000000000E+00 -0.43098497491E+03  0.43098497491E+03  0.25500000920E-02 0.  1.
    10030    2    1    2    0    0  0.00000000000E+00  0.00000000000E+00  0.12295366794E+04  0.20915066292E+04  0.16919336671E+04 0.  0.
        1    1    3    3  502    0 -0.17114243042E+03 -0.17089161840E+03  0.16168740213E+04  0.16348624644E+04  0.50400001928E-02 0. -1.
       -1    1    3    3    0  502  0.17114243042E+03  0.17089161840E+03 -0.38733734195E+03  0.45664416477E+03  0.50400001928E-02 0.  1.
</event>
<event>
 5   0  0.1285639E-04  0.1699603E+04  0.7818609E-02  0.8761591E-01
        2   -1    0    0  501    0  0.00000000000E+00  0.00000000000E+00  0.45127250807E+03  0.45127250808E+03  0.25500000920E-02 0. -1.
       -2   -1    0    0    0  501  0.00000000000E+00  0.00000000000E+00 -0.16002806772E+04  0.16002806772E+04  0.25500000920E-02 0.  1.
    10030    2    1    2    0    0  0.00000000000E+00  0.00000000000E+00 -0.11490081691E+04  0.20515531853E+04  0.16996031005E+04 0.  0.
        4    1    3    3  502    0 -0.63431922933E+03 -0.22786664575E+03  0.50241152332E+02  0.67587711844E+03  0.12699999809E+01 0. -1.
       -4    1    3    3    0  502  0.63431922933E+03  0.22786664575E+03 -0.11992493214E+04  0.13756760668E+04  0.12699999809E+01 0.  1.
</event>
<event>
 5   0  0.1333546E-04  0.1696230E+04  0.7818609E-02  0.8763518E-01
        2   -1    0    0  501    0  0.00000000000E+00  0.00000000000E+00  0.53222460584E+03  0.53222460585E+03  0.25500000920E-02 0.  1.
       -2   -1    0    0    0  501  0.00000000000E+00  0.00000000000E+00 -0.13514945692E+04  0.13514945692E+04  0.25500000920E-02 0. -1.
    10030    2    1    2    0    0  0.00000000000E+00  0.00000000000E+00 -0.81926996335E+03  0.18837191750E+04  0.16962295415E+04 0.  0.
        5    1    3    3  502    0 -0.33972886961E+03 -0.59177958849E+03 -0.96894891278E+03  0.11851172397E+04  0.46999998093E+01 0. -1.
       -5    1    3    3    0  502  0.33972886961E+03  0.59177958849E+03  0.14967894943E+03  0.69860193537E+03  0.46999998093E+01 0.  1.
</event>
<event>
 5   0  0.1255362E-04  0.1700217E+04  0.7818609E-02  0.8761240E-01
        2   -1    0    0  501    0  0.00000000000E+00  0.00000000000E+00  0.61504806812E+03  0.61504806813E+03  0.25500000920E-02 0.  1.
       -2   -1    0    0    0  501  0.00000000000E+00  0.00000000000E+00 -0.11750051250E+04  0.11750051250E+04  0.25500000920E-02 0. -1.
    10030    2    1    2    0    0  0.00000000000E+00  0.00000000000E+00 -0.55995705691E+03  0.17900531932E+04  0.17002172005E+04 0.  0.
        1    1    3    3  502    0  0.11260420035E+03  0.65217868886E+03  0.28175554481E+03  0.71930726063E+03  0.50400001928E-02 0.  1.
       -1    1    3    3    0  502 -0.11260420035E+03 -0.65217868886E+03 -0.84171260172E+03  0.10707459325E+04  0.50400001928E-02 0. -1.
</event>
<event>
 5   0  0.1333546E-04  0.1695463E+04  0.7818609E-02  0.8763956E-01
       -2   -1    0    0    0  501  0.00000000000E+00  0.00000000000E+00  0.32101728176E+03  0.32101728177E+03  0.25500000920E-02 0.  1.
        2   -1    0    0  501    0  0.00000000000E+00  0.00000000000E+00 -0.22386605914E+04  0.22386605914E+04  0.25500000920E-02 0. -1.
    10030    2    1    2    0    0  0.00000000000E+00  0.00000000000E+00 -0.19176433096E+04  0.25596778732E+04  0.16954630493E+04 0.  0.
        5    1    3    3  502    0  0.24854997317E+03  0.68345366992E+03 -0.30119839543E+03  0.78716489473E+03  0.46999998093E+01 0.  1.
       -5    1    3    3    0  502 -0.24854997317E+03 -0.68345366992E+03 -0.16164449142E+04  0.17725129785E+04  0.46999998093E+01 0. -1.
</event>
<event>
 5   0  0.1255362E-04  0.1699791E+04  0.7818609E-02  0.8761484E-01
       -2   -1    0    0    0  501  0.00000000000E+00  0.00000000000E+00  0.35274446010E+03  0.35274446011E+03  0.25500000920E-02 0. -1.
        2   -1    0    0  501    0  0.00000000000E+00  0.00000000000E+00 -0.20477213283E+04  0.20477213283E+04  0.25500000920E-02 0.  1.
    10030    2    1    2    0    0  0.00000000000E+00  0.00000000000E+00 -0.16949768682E+04  0.24004657884E+04  0.16997909923E+04 0.  0.
        1    1    3    3  502    0 -0.17325923796E+03  0.43927616858E+03 -0.18454141001E+04  0.19048715223E+04  0.50400001928E-02 0.  1.
       -1    1    3    3    0  502  0.17325923796E+03 -0.43927616858E+03  0.15043723187E+03  0.49559426609E+03  0.50400001928E-02 0. -1.
</event>
<event>
 5   0  0.6564887E-05  0.1696450E+04  0.7818609E-02  0.8763392E-01
       -1   -1    0    0    0  501  0.00000000000E+00  0.00000000000E+00  0.42352905279E+03  0.42352905282E+03  0.50400001928E-02 0. -1.
        1   -1    0    0  501    0  0.00000000000E+00  0.00000000000E+00 -0.16987872060E+04  0.16987872060E+04  0.50400001928E-02 0.  1.
    10030    2    1    2    0    0  0.00000000000E+00  0.00000000000E+00 -0.12752581532E+04  0.21223162589E+04  0.16964501010E+04 0.  0.
        4    1    3    3  502    0 -0.11953705164E+03 -0.80540435552E+03 -0.34021218244E+03  0.88244615960E+03  0.12699999809E+01 0. -1.
       -4    1    3    3    0  502  0.11953705164E+03  0.80540435552E+03 -0.93504597081E+03  0.12398700993E+04  0.12699999809E+01 0.  1.
</event>
<event>
 5   0  0.6615842E-05  0.1711738E+04  0.7818609E-02  0.8754698E-01
        1   -1    0    0  501    0  0.00000000000E+00  0.00000000000E+00  0.15091555851E+04  0.15091555851E+04  0.50400001928E-02 0. -1.
       -1   -1    0    0    0  501  0.00000000000E+00  0.00000000000E+00 -0.48537831116E+03  0.48537831119E+03  0.50400001928E-02 0.  1.
    10030    2    1    2    0    0  0.00000000000E+00  0.00000000000E+00  0.10237772739E+04  0.19945338963E+04  0.17117375841E+04 0.  0.
        3    1    3    3  502    0 -0.46940950437E+03 -0.52312399081E+03 -0.57167552824E+02  0.70517524904E+03  0.10100000352E+00 0.  1.
       -3    1    3    3    0  502  0.46940950437E+03  0.52312399081E+03  0.10809448267E+04  0.12893586472E+04  0.10100000352E+00 0. -1.
</event>
<event>
 5   0  0.1255362E-04  0.1697327E+04  0.7818609E-02  0.8762890E-01
       -2   -1    0    0    0  501  0.00000000000E+00  0.00000000000E+00  0.58417898582E+03  0.58417898582E+03  0.25500000920E-02 0.  1.
        2   -1    0    0  501    0  0.00000000000E+00  0.00000000000E+00 -0.12328929186E+04  0.12328929186E+04  0.25500000920E-02 0. -1.
    10030    2    1    2    0    0  0.00000000000E+00  0.00000000000E+00 -0.64871393279E+03  0.18170719044E+04  0.16973274697E+04 0.  0.
        1    1    3    3  502    0 -0.61575955970E+03 -0.55772781409E+02 -0.94671303543E+03  0.11307236665E+04  0.50400001928E-02 0. -1.
       -1    1    3    3    0  502  0.61575955970E+03  0.55772781409E+02  0.29799910264E+03  0.68634823793E+03  0.50400001928E-02 0.  1.
</event>
<event>
 5   0  0.6539134E-05  0.1702938E+04  0.7818609E-02  0.8759690E-01
       -1   -1    0    0    0  501  0.00000000000E+00  0.00000000000E+00  0.11748287770E+04  0.11748287771E+04  0.50400001928E-02 0.  1.
        1   -1    0    0  501    0  0.00000000000E+00  0.00000000000E+00 -0.61711108048E+03  0.61711108050E+03  0.50400001928E-02 0. -1.
    10030    2    1    2    0    0  0.00000000000E+00  0.00000000000E+00  0.55771769657E+03  0.17919398575E+04  0.17029384675E+04 0.  0.
        2    1    3    3  502    0 -0.81860931147E+03  0.47298689286E+02  0.37430345924E+02  0.82082848491E+03  0.25500000920E-02 0. -1.
       -2    1    3    3    0  502  0.81860931147E+03 -0.47298689286E+02  0.52028735064E+03  0.97111137264E+03  0.25500000920E-02 0.  1.
</event>
<event>
 5   0  0.1269175E-04  0.1703454E+04  0.7818609E-02  0.8759397E-01
       -2   -1    0    0    0  501  0.00000000000E+00  0.00000000000E+00  0.58912368585E+03  0.58912368586E+03  0.25500000920E-02 0.  1.
        2   -1    0    0  501    0  0.00000000000E+00  0.00000000000E+00 -0.12313869324E+04  0.12313869324E+04  0.25500000920E-02 0. -1.
    10030    2    1    2    0    0  0.00000000000E+00  0.00000000000E+00 -0.64226324659E+03  0.18205106183E+04  0.17034543826E+04 0.  0.
        2    1    3    3  502    0  0.73716812509E+03 -0.34684539518E+03 -0.55623444899E+02  0.81658590512E+03  0.25500000920E-02 0.  1.
       -2    1    3    3    0  502 -0.73716812509E+03  0.34684539518E+03 -0.58663980169E+03  0.10039247132E+04  0.25500000920E-02 0. -1.
</event>
<event>
 5   0  0.6564887E-05  0.1701745E+04  0.7818609E-02  0.8760370E-01
       -1   -1    0    0    0  501  0.00000000000E+00  0.00000000000E+00  0.55489130322E+03  0.55489130324E+03  0.50400001928E-02 0. -1.
        1   -1    0    0  501    0  0.00000000000E+00  0.00000000000E+00 -0.13047313420E+04  0.13047313420E+04  0.50400001928E-02 0.  1.
    10030    2    1    2    0    0  0.00000000000E+00  0.00000000000E+00 -0.74984003874E+03  0.18596226452E+04  0.17017450746E+04 0.  0.
        4    1    3    3  502    0  0.65991383098E+02 -0.18101760177E+03  0.53073856575E+03  0.56463020895E+03  0.12699999809E+01 0. -1.
       -4    1    3    3    0  502 -0.65991383098E+02  0.18101760177E+03 -0.12805786045E+04  0.12949924363E+04  0.12699999809E+01 0.  1.
</event>
<event>
 5   0  0.1333546E-04  0.1704924E+04  0.7818609E-02  0.8758561E-01
        2   -1    0    0  501    0  0.00000000000E+00  0.00000000000E+00  0.59573337900E+03  0.59573337900E+03  0.25500000920E-02 0. -1.
       -2   -1    0    0    0  501  0.00000000000E+00  0.00000000000E+00 -0.12198271077E+04  0.12198271077E+04  0.25500000920E-02 0.  1.
    10030    2    1    2    0    0  0.00000000000E+00  0.00000000000E+00 -0.62409372872E+03  0.18155604867E+04  0.17049243088E+04 0.  0.
        5    1    3    3  502    0  0.84490818422E+03 -0.66704917167E+02 -0.21473734418E+03  0.87433037390E+03  0.46999998093E+01 0.  1.
       -5    1    3    3    0  502 -0.84490818422E+03  0.66704917167E+02 -0.40935638454E+03  0.94123011283E+03  0.46999998093E+01 0. -1.
</event>
<event>
 5   0  0.6564887E-05  0.1690864E+04  0.7818609E-02  0.8766592E-01
        1   -1    0    0  501    0  0.00000000000E+00  0.00000000000E+00  0.15829792033E+04  0.15829792033E+04  0.50400001928E-02 0. -1.
       -1   -1    0    0    0  501  0.00000000000E+00  0.00000000000E+00 -0.45152525274E+03  0.45152525277E+03  0.50400001928E-02 0.  1.
    10030    2    1    2    0    0  0.00000000000E+00  0.00000000000E+00  0.11314539506E+04  0.20345044561E+04  0.16908637850E+04 0.  0.
        4    1    3    3  502    0 -0.50842231865E+03  0.14491248114E+03  0.13595518371E+04  0.14587239944E+04  0.12699999809E+01 0. -1.
       -4    1    3    3    0  502  0.50842231865E+03 -0.14491248114E+03 -0.22809788651E+03  0.57578046166E+03  0.12699999809E+01 0.  1.
</event>
<event>
 5   0  0.1255362E-04  0.1707085E+04  0.7818609E-02  0.8757334E-01
       -2   -1    0    0    0  501  0.00000000000E+00  0.00000000000E+00  0.27893035081E+03  0.27893035082E+03  0.25500000920E-02 0. -1.
        2   -1    0    0  501    0  0.00000000000E+00  0.00000000000E+00 -0.26118878645E+04  0.26118878645E+04  0.25500000920E-02 0.  1.
    10030    2    1    2    0    0  0.00000000000E+00  0.00000000000E+00 -0.23329575137E+04  0.28908182153E+04  0.17070849988E+04 0.  0.
        1    1    3    3  502    0  0.28708225283E+03 -0.77720281387E+03 -0.81912306538E+03  0.11650849883E+04  0.50400001928E-02 0. -1.
       -1    1    3    3    0  502 -0.28708225283E+03  0.77720281387E+03 -0.15138344483E+04  0.17257332269E+04  0.50400001928E-02 0.  1.
</event>
<event>
 5   0  0.6539134E-05  0.1701185E+04  0.7818609E-02  0.8760689E-01
       -1   -1    0    0    0  501  0.00000000000E+00  0.00000000000E+00  0.95625562454E+03  0.95625562456E+03  0.50400001928E-02 0.  1.
        1   -1    0    0  501    0  0.00000000000E+00  0.00000000000E+00 -0.75660515310E+03  0.75660515312E+03  0.50400001928E-02 0. -1.
    10030    2    1    2    0    0  0.00000000000E+00  0.00000000000E+00  0.19965047144E+03  0.17128607777E+04  0.17011853905E+04 0.  0.
        2    1    3    3  502    0 -0.75896991079E+03 -0.30153740378E+03 -0.13960460911E+03  0.82852252731E+03  0.25500000920E-02 0. -1.
       -2    1    3    3    0  502  0.75896991079E+03  0.30153740378E+03  0.33925508056E+03  0.88433825036E+03  0.25500000920E-02 0.  1.
</event>
<event>
 5   0  0.6539134E-05  0.1699527E+04  0.7818609E-02  0.8761634E-01
        1   -1    0    0  501    0  0.00000000000E+00  0.00000000000E+00  0.92013521092E+03  0.92013521093E+03  0.50400001928E-02 0.  1.
       -1   -1    0    0    0  501  0.00000000000E+00  0.00000000000E+00 -0.78477360514E+03  0.78477360515E+03  0.50400001928E-02 0. -1.
    10030    2    1    2    0    0  0.00000000000E+00  0.00000000000E+00  0.13536160578E+03  0.17049088161E+04  0.16995267891E+04 0.  0.
        2    1    3    3  502    0 -0.41777861694E+03 -0.69301086563E+03 -0.19255310053E+03  0.83179308075E+03  0.25500000920E-02 0. -1.
       -2    1    3    3    0  502  0.41777861694E+03  0.69301086563E+03  0.32791470631E+03  0.87311573533E+03  0.25500000920E-02 0.  1.
</event>
<event>
 5   0  0.6615842E-05  0.1688059E+04  0.7818609E-02  0.8768204E-01
        1   -1    0    0  501    0  0.00000000000E+00  0.00000000000E+00  0.87440707767E+03  0.87440707768E+03  0.50400001928E-02 0.  1.
       -1   -1    0    0    0  501  0.00000000000E+00  0.00000000000E+00 -0.81470758864E+03  0.81470758866E+03  0.50400001928E-02 0. -1.
    10030    2    1    2    0    0  0.00000000000E+00  0.00000000000E+00  0.59699489023E+02  0.16891146663E+04  0.16880593375E+04 0.  0.
        3    1    3    3  502    0  0.74677919321E+03  0.80962124139E+02  0.41499561529E+03  0.85816979664E+03  0.10100000352E+00 0.  1.
       -3    1    3    3    0  502 -0.74677919321E+03 -0.80962124139E+02 -0.35529612626E+03  0.83094486971E+03  0.10100000352E+00 0. -1.
</event>
<event>
 5   0  0.6834837E-05  0.1700759E+04  0.7818609E-02  0.8760931E-01
        1   -1    0    0  501    0  0.00000000000E+00  0.00000000000E+00  0.86283980487E+03  0.86283980488E+03  0.50400001928E-02 0.  1.
       -1   -1    0    0    0  501  0.00000000000E+00  0.00000000000E+00 -0.83809947262E+03  0.83809947264E+03  0.50400001928E-02 0. -1.
    10030    2    1    2    0    0  0.00000000000E+00  0.00000000000E+00  0.24740332243E+02  0.17009392775E+04  0.17007593427E+04 0.  0.
        5    1    3    3  502    0  0.17130493760E+03  0.82647165307E+03 -0.91191358853E+02  0.84896332600E+03  0.46999998093E+01 0. -1.
       -5    1    3    3    0  502 -0.17130493760E+03 -0.82647165307E+03  0.11593169110E+03  0.85197595152E+03  0.46999998093E+01 0.  1.
</event>
<event>
 5   0  0.6564887E-05  0.1698437E+04  0.7818609E-02  0.8762256E-01
        1   -1    0    0  501    0  0.00000000000E+00  0.00000000000E+00  0.16943844393E+04  0.16943844393E+04  0.50400001928E-02 0.  1.
       -1   -1    0    0    0  501  0.00000000000E+00  0.00000000000E+00 -0.42562484758E+03  0.42562484761E+03  0.50400001928E-02 0. -1.
    10030    2    1    2    0    0  0.00000000000E+00  0.00000000000E+00  0.12687595917E+04  0.21200092869E+04  0.16984370683E+04 0.  0.
        4    1    3    3  502    0 -0.68582821640E+03 -0.49760139792E+03  0.70502254648E+03  0.11022821316E+04  0.12699999809E+01 0.  1.
       -4    1    3    3    0  502  0.68582821640E+03  0.49760139792E+03  0.56373704521E+03  0.10177271553E+04  0.12699999809E+01 0. -1.
</event>
<event>
 5   0  0.1285639E-04  0.1697916E+04  0.7818609E-02  0.8762554E-01
        2   -1    0    0  501    0  0.00000000000E+00  0.00000000000E+00  0.14255471631E+04  0.14255471631E+04  0.25500000920E-02 0. -1.
       -2   -1    0    0    0  501  0.00000000000E+00  0.00000000000E+00 -0.50558117672E+03  0.50558117672E+03  0.25500000920E-02 0.  1.
    10030    2    1    2    0    0  0.00000000000E+00  0.00000000000E+00  0.91996598635E+03  0.19311283398E+04  0.16979161489E+04 0.  0.
        4    1    3    3  502    0 -0.24832062477E+03  0.87996066012E+02 -0.45791134681E+03  0.52829050224E+03  0.12699999809E+01 0.  1.
       -4    1    3    3    0  502  0.24832062477E+03 -0.87996066012E+02  0.13778773332E+04  0.14028378376E+04  0.12699999809E+01 0. -1.
</event>
<event>
 5   0  0.1255362E-04  0.1700142E+04  0.7818609E-02  0.8761283E-01
       -2   -1    0    0    0  501  0.00000000000E+00  0.00000000000E+00  0.10150978444E+04  0.10150978444E+04  0.25500000920E-02 0. -1.
        2   -1    0    0  501    0  0.00000000000E+00  0.00000000000E+00 -0.71187309533E+03  0.71187309533E+03  0.25500000920E-02 0.  1.
    10030    2    1    2    0    0  0.00000000000E+00  0.00000000000E+00  0.30322474906E+03  0.17269709397E+04  0.17001421641E+04 0.  0.
        1    1    3    3  502    0  0.23937235783E+03 -0.14452983735E+03  0.96704601659E+03  0.10066608157E+04  0.50400001928E-02 0. -1.
       -1    1    3    3    0  502 -0.23937235783E+03  0.14452983735E+03 -0.66382126753E+03  0.72031012406E+03  0.50400001928E-02 0.  1.
</event>
<event>
 5   0  0.1333546E-04  0.1703200E+04  0.7818609E-02  0.8759541E-01
       -2   -1    0    0    0  501  0.00000000000E+00  0.00000000000E+00  0.72818696559E+03  0.72818696559E+03  0.25500000920E-02 0. -1.
        2   -1    0    0  501    0  0.00000000000E+00  0.00000000000E+00 -0.99592914896E+03  0.99592914897E+03  0.25500000920E-02 0.  1.
    10030    2    1    2    0    0  0.00000000000E+00  0.00000000000E+00 -0.26774218337E+03  0.17241161146E+04  0.17032000762E+04 0.  0.
        5    1    3    3  502    0  0.25540066149E+03 -0.81070721034E+03 -0.18671228702E+03  0.87026389498E+03  0.46999998093E+01 0. -1.
       -5    1    3    3    0  502 -0.25540066149E+03  0.81070721034E+03 -0.81029896358E+02  0.85385221958E+03  0.46999998093E+01 0.  1.
</event>
<event>
 5   0  0.1269175E-04  0.1699419E+04  0.7818609E-02  0.8761696E-01
        2   -1    0    0  501    0  0.00000000000E+00  0.00000000000E+00  0.18002036711E+04  0.18002036711E+04  0.25500000920E-02 0.  1.
       -2   -1    0    0    0  501  0.00000000000E+00  0.00000000000E+00 -0.40106920677E+03  0.40106920678E+03  0.25500000920E-02 0. -1.
    10030    2    1    2    0    0  0.00000000000E+00  0.00000000000E+00  0.13991344643E+04  0.22012728779E+04  0.16994190283E+04 0.  0.
        2    1    3    3  502    0 -0.37518371403E+03 -0.75993012716E+03  0.77888459172E+03  0.11510507481E+04  0.25500000920E-02 0.  1.
       -2    1    3    3    0  502  0.37518371403E+03  0.75993012716E+03  0.62024987261E+03  0.10502221298E+04  0.25500000920E-02 0. -1.
</event>
<event>
 5   0  0.6539134E-05  0.1712089E+04  0.7818609E-02  0.8754499E-01
       -1   -1    0    0    0  501  0.00000000000E+00  0.00000000000E+00  0.13603312291E+04  0.13603312291E+04  0.50400001928E-02 0.  1.
        1   -1    0    0  501    0  0.00000000000E+00  0.00000000000E+00 -0.53870126571E+03  0.53870126574E+03  0.50400001928E-02 0. -1.
    10030    2    1    2    0    0  0.00000000000E+00  0.00000000000E+00  0.82162996337E+03  0.18990324948E+04  0.17120889637E+04 0.  0.
        2    1    3    3  502    0 -0.58798010762E+03  0.61218542091E+03  0.53393290002E+03  0.10027840935E+04  0.25500000920E-02 0. -1.
       -2    1    3    3    0  502  0.58798010762E+03 -0.61218542091E+03  0.28769706334E+03  0.89624840128E+03  0.25500000920E-02 0.  1.
</event>
<event>
 5   0  0.6601906E-05  0.1702253E+04  0.7818609E-02  0.8760081E-01
       -1   -1    0    0    0  501  0.00000000000E+00  0.00000000000E+00  0.39916267969E+03  0.39916267973E+03  0.50400001928E-02 0. -1.
        1   -1    0    0  501    0  0.00000000000E+00  0.00000000000E+00 -0.18148395097E+04  0.18148395097E+04  0.50400001928E-02 0.  1.
    10030    2    1    2    0    0  0.00000000000E+00  0.00000000000E+00 -0.14156768300E+04  0.22140021894E+04  0.17022528625E+04 0.  0.
        1    1    3    3  502    0  0.30067918850E+03  0.75734338318E+03 -0.10275905295E+04  0.13114569268E+04  0.50400001928E-02 0.  1.
       -1    1    3    3    0  502 -0.30067918850E+03 -0.75734338318E+03 -0.38808630045E+03  0.90254526261E+03  0.50400001928E-02 0. -1.
</event>
<event>
 5   0  0.1333546E-04  0.1702357E+04  0.7818609E-02  0.8760021E-01
        2   -1    0    0  501    0  0.00000000000E+00  0.00000000000E+00  0.21115846740E+04  0.21115846740E+04  0.25500000920E-02 0.  1.
       -2   -1    0    0    0  501  0.00000000000E+00  0.00000000000E+00 -0.34310940912E+03  0.34310940913E+03  0.25500000920E-02 0. -1.
    10030    2    1    2    0    0  0.00000000000E+00  0.00000000000E+00  0.17684752649E+04  0.24546940832E+04  0.17023566839E+04 0.  0.
        5    1    3    3  502    0  0.25094996141E+03  0.81328407266E+03  0.89677618822E+03  0.12363803977E+04  0.46999998093E+01 0. -1.
       -5    1    3    3    0  502 -0.25094996141E+03 -0.81328407266E+03  0.87169907669E+03  0.12183136855E+04  0.46999998093E+01 0.  1.
</event>
<event>
 5   0  0.1255362E-04  0.1682553E+04  0.7818609E-02  0.8771378E-01
        2   -1    0    0  501    0  0.00000000000E+00  0.00000000000E+00  0.13533416068E+04  0.13533416068E+04  0.25500000920E-02 0. -1.
       -2   -1    0    0    0  501  0.00000000000E+00  0.00000000000E+00 -0.52296193881E+03  0.52296193881E+03  0.25500000920E-02 0.  1.
    10030    2    1    2    0    0  0.00000000000E+00  0.00000000000E+00  0.83037966795E+03  0.18763035456E+04  0.16825530013E+04 0.  0.
        1    1    3    3  502    0 -0.62786839046E+03  0.34906701558E+03  0.90341746373E+03  0.11542225136E+04  0.50400001928E-02 0. -1.
       -1    1    3    3    0  502  0.62786839046E+03 -0.34906701558E+03 -0.73037795771E+02  0.72208103198E+03  0.50400001928E-02 0.  1.
</event>
<event>
 5   0  0.6834837E-05  0.1660849E+04  0.7818609E-02  0.8784014E-01
        1   -1    0    0  501    0  0.00000000000E+00  0.00000000000E+00  0.22874033663E+04  0.22874033663E+04  0.50400001928E-02 0. -1.
       -1   -1    0    0    0  501  0.00000000000E+00  0.00000000000E+00 -0.30147951154E+03  0.30147951158E+03  0.50400001928E-02 0.  1.
    10030    2    1    2    0    0  0.00000000000E+00  0.00000000000E+00  0.19859238548E+04  0.25888828779E+04  0.16608494810E+04 0.  0.
        5    1    3    3  502    0 -0.44525748098E+01  0.57778815475E+03  0.63270507096E+02  0.58127809545E+03  0.46999998093E+01 0.  1.
       -5    1    3    3    0  502  0.44525748098E+01 -0.57778815475E+03  0.19226533477E+04  0.20076047825E+04  0.46999998093E+01 0. -1.
</event>
<event>
 5   0  0.6615842E-05  0.1689396E+04  0.7818609E-02  0.8767435E-01
       -1   -1    0    0    0  501  0.00000000000E+00  0.00000000000E+00  0.60608658360E+03  0.60608658362E+03  0.50400001928E-02 0.  1.
        1   -1    0    0  501    0  0.00000000000E+00  0.00000000000E+00 -0.11772493030E+04  0.11772493030E+04  0.50400001928E-02 0. -1.
    10030    2    1    2    0    0  0.00000000000E+00  0.00000000000E+00 -0.57116271944E+03  0.17833358867E+04  0.16893963515E+04 0.  0.
        3    1    3    3  502    0  0.16343855968E+03  0.28273525205E+03  0.53675055610E+03  0.62829336716E+03  0.10100000352E+00 0.  1.
       -3    1    3    3    0  502 -0.16343855968E+03 -0.28273525205E+03 -0.11079132755E+04  0.11550425195E+04  0.10100000352E+00 0. -1.
</event>
<event>
 5   0  0.1333546E-04  0.1699868E+04  0.7818609E-02  0.8761440E-01
       -2   -1    0    0    0  501  0.00000000000E+00  0.00000000000E+00  0.48734708443E+03  0.48734708444E+03  0.25500000920E-02 0.  1.
        2   -1    0    0  501    0  0.00000000000E+00  0.00000000000E+00 -0.14822859129E+04  0.14822859129E+04  0.25500000920E-02 0. -1.
    10030    2    1    2    0    0  0.00000000000E+00  0.00000000000E+00 -0.99493882851E+03  0.19696329974E+04  0.16998678984E+04 0.  0.
        5    1    3    3  502    0 -0.73708719707E+03  0.10680897405E+02 -0.98763278810E+03  0.12324172312E+04  0.46999998093E+01 0. -1.
       -5    1    3    3    0  502  0.73708719707E+03 -0.10680897405E+02 -0.73060404105E+01  0.73721576617E+03  0.46999998093E+01 0.  1.
</event>
<event>
 5   0  0.6615842E-05  0.1680989E+04  0.7818609E-02  0.8772282E-01
       -1   -1    0    0    0  501  0.00000000000E+00  0.00000000000E+00  0.84120251872E+03  0.84120251873E+03  0.50400001928E-02 0.  1.
        1   -1    0    0  501    0  0.00000000000E+00  0.00000000000E+00 -0.83978728907E+03  0.83978728908E+03  0.50400001928E-02 0. -1.
    10030    2    1    2    0    0  0.00000000000E+00  0.00000000000E+00  0.14152296522E+01  0.16809898078E+04  0.16809892121E+04 0.  0.
        3    1    3    3  502    0 -0.80922040298E+03 -0.10476693906E+03 -0.20083004725E+03  0.84032522883E+03  0.10100000352E+00 0. -1.
       -3    1    3    3    0  502  0.80922040298E+03  0.10476693906E+03  0.20224527691E+03  0.84066457898E+03  0.10100000352E+00 0.  1.
</event>
<event>
 5   0  0.1333546E-04  0.1701206E+04  0.7818609E-02  0.8760677E-01
       -2   -1    0    0    0  501  0.00000000000E+00  0.00000000000E+00  0.37829991815E+03  0.37829991816E+03  0.25500000920E-02 0. -1.
        2   -1    0    0  501    0  0.00000000000E+00  0.00000000000E+00 -0.19125706091E+04  0.19125706091E+04  0.25500000920E-02 0.  1.
    10030    2    1    2    0    0  0.00000000000E+00  0.00000000000E+00 -0.15342706910E+04  0.22908705273E+04  0.17012058134E+04 0.  0.
        5    1    3    3  502    0 -0.35967007914E+03  0.27738917095E+03  0.20130131674E+03  0.49684165296E+03  0.46999998093E+01 0. -1.
       -5    1    3    3    0  502  0.35967007914E+03 -0.27738917095E+03 -0.17355720077E+04  0.17940288743E+04  0.46999998093E+01 0.  1.
</event>
<event>
 5   0  0.6539134E-05  0.1703801E+04  0.7818609E-02  0.8759200E-01
        1   -1    0    0  501    0  0.00000000000E+00  0.00000000000E+00  0.12873798339E+04  0.12873798339E+04  0.50400001928E-02 0. -1.
       -1   -1    0    0    0  501  0.00000000000E+00  0.00000000000E+00 -0.56372965811E+03  0.56372965814E+03  0.50400001928E-02 0.  1.
    10030    2    1    2    0    0  0.00000000000E+00  0.00000000000E+00  0.72365017579E+03  0.18511094920E+04  0.17038006851E+04 0.  0.
        2    1    3    3  502    0 -0.14451985997E+03  0.45627691138E+03 -0.40384684829E+03  0.62623229449E+03  0.25500000920E-02 0.  1.
       -2    1    3    3    0  502  0.14451985997E+03 -0.45627691138E+03  0.11274970241E+04  0.12248771976E+04  0.25500000920E-02 0. -1.
</event>
<event>
 5   0  0.1255362E-04  0.1700092E+04  0.7818609E-02  0.8761312E-01
       -2   -1    0    0    0  501  0.00000000000E+00  0.00000000000E+00  0.79990255665E+03  0.79990255665E+03  0.25500000920E-02 0.  1.
        2   -1    0    0  501    0  0.00000000000E+00  0.00000000000E+00 -0.90333228907E+03  0.90333228907E+03  0.25500000920E-02 0. -1.
    10030    2    1    2    0    0  0.00000000000E+00  0.00000000000E+00 -0.10342973242E+03  0.17032348457E+04  0.17000915358E+04 0.  0.
        1    1    3    3  502    0  0.11407966717E+03  0.89745906167E+02 -0.89082496469E+03  0.90257277595E+03  0.50400001928E-02 0. -1.
       -1    1    3    3    0  502 -0.11407966717E+03 -0.89745906167E+02  0.78739523228E+03  0.80066206977E+03  0.50400001928E-02 0.  1.
</event>
<event>
 5   0  0.6539134E-05  0.1703921E+04  0.7818609E-02  0.8759131E-01
       -1   -1    0    0    0  501  0.00000000000E+00  0.00000000000E+00  0.32391546132E+03  0.32391546136E+03  0.50400001928E-02 0. -1.
        1   -1    0    0  501    0  0.00000000000E+00  0.00000000000E+00 -0.22408216796E+04  0.22408216796E+04  0.50400001928E-02 0.  1.
    10030    2    1    2    0    0  0.00000000000E+00  0.00000000000E+00 -0.19169062183E+04  0.25647371410E+04  0.17039211110E+04 0.  0.
        2    1    3    3  502    0  0.40545281441E+03 -0.39199451644E+03 -0.19196426916E+04  0.20007697891E+04  0.25500000920E-02 0.  1.
       -2    1    3    3    0  502 -0.40545281441E+03  0.39199451644E+03  0.27364733463E+01  0.56396735182E+03  0.25500000920E-02 0. -1.
</event>
<event>
 5   0  0.1285639E-04  0.1723772E+04  0.7818609E-02  0.8747921E-01
        2   -1    0    0  501    0  0.00000000000E+00  0.00000000000E+00  0.10505095487E+04  0.10505095487E+04  0.25500000920E-02 0. -1.
       -2   -1    0    0    0  501  0.00000000000E+00  0.00000000000E+00 -0.70713032701E+03  0.70713032702E+03  0.25500000920E-02 0.  1.
    10030    2    1    2    0    0  0.00000000000E+00  0.00000000000E+00  0.34337922164E+03  0.17576398757E+04  0.17237716330E+04 0.  0.
        4    1    3    3  502    0 -0.67796127313E+03  0.51579763338E+03  0.38092945869E+02  0.85271998445E+03  0.12699999809E+01 0.  1.
       -4    1    3    3    0  502  0.67796127313E+03 -0.51579763338E+03  0.30528627577E+03  0.90491989122E+03  0.12699999809E+01 0. -1.
</event>
<event>
 5   0  0.6564887E-05  0.1699935E+04  0.7818609E-02  0.8761402E-01
       -1   -1    0    0    0  501  0.00000000000E+00  0.00000000000E+00  0.87200325467E+03  0.87200325468E+03  0.50400001928E-02 0.  1.
        1   -1    0    0  501    0  0.00000000000E+00  0.00000000000E+00 -0.82848819749E+03  0.82848819750E+03  0.50400001928E-02 0. -1.
    10030    2    1    2    0    0  0.00000000000E+00  0.00000000000E+00  0.43515057183E+02  0.17004914522E+04  0.16999345925E+04 0.  0.
        4    1    3    3  502    0 -0.75101456202E+03 -0.34817034425E+03  0.21468680267E+03  0.85518272732E+03  0.12699999809E+01 0.  1.
       -4    1    3    3    0  502  0.75101456202E+03  0.34817034425E+03 -0.17117174548E+03  0.84530872486E+03  0.12699999809E+01 0. -1.
</event>
<event>
 5   0  0.6539134E-05  0.1683932E+04  0.7818609E-02  0.8770582E-01
       -1   -1    0    0    0  501  0.00000000000E+00  0.00000000000E+00  0.47367805113E+03  0.47367805116E+03  0.50400001928E-02 0. -1.
        1   -1    0    0  501    0  0.00000000000E+00  0.00000000000E+00 -0.14966008871E+04  0.14966008871E+04  0.50400001928E-02 0.  1.
    10030    2    1    2    0    0  0.00000000000E+00  0.00000000000E+00 -0.10229228360E+04  0.19702789383E+04  0.16839322927E+04 0.  0.
        2    1    3    3  502    0  0.10842216584E+03 -0.19914804124E+03 -0.14602036242E+04  0.14777042778E+04  0.25500000920E-02 0.  1.
       -2    1    3    3    0  502 -0.10842216584E+03  0.19914804124E+03  0.43728078825E+03  0.49257466049E+03  0.25500000920E-02 0. -1.
</event>
<event>
 5   0  0.6834837E-05  0.1700120E+04  0.7818609E-02  0.8761296E-01
        1   -1    0    0  501    0  0.00000000000E+00  0.00000000000E+00  0.85855842926E+03  0.85855842928E+03  0.50400001928E-02 0.  1.
       -1   -1    0    0    0  501  0.00000000000E+00  0.00000000000E+00 -0.84164589170E+03  0.84164589172E+03  0.50400001928E-02 0. -1.
    10030    2    1    2    0    0  0.00000000000E+00  0.00000000000E+00  0.16912537562E+02  0.17002043210E+04  0.17001202014E+04 0.  0.
        5    1    3    3  502    0 -0.39167945156E+03 -0.49086118281E+03 -0.56447921802E+03  0.84440296728E+03  0.46999998093E+01 0. -1.
       -5    1    3    3    0  502  0.39167945156E+03  0.49086118281E+03  0.58139175559E+03  0.85580135372E+03  0.46999998093E+01 0.  1.
</event>
<event>
 5   0  0.6539134E-05  0.1701775E+04  0.7818609E-02  0.8760353E-01
        1   -1    0    0  501    0  0.00000000000E+00  0.00000000000E+00  0.16876790823E+04  0.16876790823E+04  0.50400001928E-02 0. -1.
       -1   -1    0    0    0  501  0.00000000000E+00  0.00000000000E+00 -0.42899715790E+03  0.42899715793E+03  0.50400001928E-02 0.  1.
    10030    2    1    2    0    0  0.00000000000E+00  0.00000000000E+00  0.12586819244E+04  0.21166762402E+04  0.17017749908E+04 0.  0.
        2    1    3    3  502    0 -0.24066142252E+03 -0.81124751177E+03  0.74037509481E+03  0.11243645880E+04  0.25500000920E-02 0. -1.
       -2    1    3    3    0  502  0.24066142252E+03  0.81124751177E+03  0.51830682960E+03  0.99231165228E+03  0.25500000920E-02 0.  1.
</event>
<event>
 5   0  0.6615842E-05  0.1699495E+04  0.7818609E-02  0.8761652E-01
       -1   -1    0    0    0  501  0.00000000000E+00  0.00000000000E+00  0.58330293569E+03  0.58330293571E+03  0.50400001928E-02 0. -1.
        1   -1    0    0  501    0  0.00000000000E+00  0.00000000000E+00 -0.12379003739E+04  0.12379003740E+04  0.50400001928E-02 0.  1.
    10030    2    1    2    0    0  0.00000000000E+00  0.00000000000E+00 -0.65459743825E+03  0.18212033097E+04  0.16994951277E+04 0.  0.
        3    1    3    3  502    0 -0.56035162148E+03  0.20330136500E+02 -0.10115088582E+04  0.11565281815E+04  0.10100000352E+00 0.  1.
       -3    1    3    3    0  502  0.56035162148E+03 -0.20330136500E+02  0.35691141995E+03  0.66467512819E+03  0.10100000352E+00 0. -1.
</event>
<event>
 5   0  0.6834837E-05  0.1688671E+04  0.7818609E-02  0.8767852E-01
        1   -1    0    0  501    0  0.00000000000E+00  0.00000000000E+00  0.12890415367E+04  0.12890415367E+04  0.50400001928E-02 0. -1.
       -1   -1    0    0    0  501  0.00000000000E+00  0.00000000000E+00 -0.55304871014E+03  0.55304871016E+03  0.50400001928E-02 0.  1.
    10030    2    1    2    0    0  0.00000000000E+00  0.00000000000E+00  0.73599282652E+03  0.18420902468E+04  0.16886713821E+04 0.  0.
        5    1    3    3  502    0 -0.46058706066E+03  0.22333178043E+03 -0.36447069543E+03  0.62839358878E+03  0.46999998093E+01 0.  1.
       -5    1    3    3    0  502  0.46058706066E+03 -0.22333178043E+03  0.11004635219E+04  0.12136966580E+04  0.46999998093E+01 0. -1.
</event>
<event>
 5   0  0.6834837E-05  0.1700781E+04  0.7818609E-02  0.8760919E-01
       -1   -1    0    0    0  501  0.00000000000E+00  0.00000000000E+00  0.11679761491E+04  0.11679761491E+04  0.50400001928E-02 0. -1.
        1   -1    0    0  501    0  0.00000000000E+00  0.00000000000E+00 -0.61915976660E+03  0.61915976662E+03  0.50400001928E-02 0.  1.
    10030    2    1    2    0    0  0.00000000000E+00  0.00000000000E+00  0.54881638254E+03  0.17871359158E+04  0.17007808088E+04 0.  0.
        5    1    3    3  502    0  0.10540712018E+03  0.27894346868E+03  0.11112237781E+04  0.11505479106E+04  0.46999998093E+01 0. -1.
       -5    1    3    3    0  502 -0.10540712018E+03 -0.27894346868E+03 -0.56240739555E+03  0.63658800513E+03  0.46999998093E+01 0.  1.
</event>
<event>
 5   0  0.6834837E-05  0.1715224E+04  0.7818609E-02  0.8752729E-01
        1   -1    0    0  501    0  0.00000000000E+00  0.00000000000E+00  0.13398292782E+04  0.13398292782E+04  0.50400001928E-02 0.  1.
       -1   -1    0    0    0  501  0.00000000000E+00  0.00000000000E+00 -0.54894935992E+03  0.54894935994E+03  0.50400001928E-02 0. -1.
    10030    2    1    2    0    0  0.00000000000E+00  0.00000000000E+00  0.79087991831E+03  0.18887786382E+04  0.17152240958E+04 0.  0.
        5    1    3    3  502    0 -0.17013074483E+03  0.83647485620E+03  0.30435607331E+03  0.90625016676E+03  0.46999998093E+01 0.  1.
       -5    1    3    3    0  502  0.17013074483E+03 -0.83647485620E+03  0.48652384500E+03  0.98252847142E+03  0.46999998093E+01 0. -1.
</event>
<event>
 5   0  0.1285639E-04  0.1703058E+04  0.7818609E-02  0.8759622E-01
       -2   -1    0    0    0  501  0.00000000000E+00  0.00000000000E+00  0.67178233702E+03  0.67178233703E+03  0.25500000920E-02 0.  1.
        2   -1    0    0  501    0  0.00000000000E+00  0.00000000000E+00 -0.10793696865E+04  0.10793696865E+04  0.25500000920E-02 0. -1.
    10030    2    1    2    0    0  0.00000000000E+00  0.00000000000E+00 -0.40758734947E+03  0.17511520235E+04  0.17030578270E+04 0.  0.
        4    1    3    3  502    0 -0.45070417271E+03 -0.45038504517E+01  0.53906631616E+03  0.70267249988E+03  0.12699999809E+01 0.  1.
       -4    1    3    3    0  502  0.45070417271E+03  0.45038504517E+01 -0.94665366563E+03  0.10484795237E+04  0.12699999809E+01 0. -1.
</event>
<event>
 5   0  0.6564887E-05  0.1701764E+04  0.7818609E-02  0.8760359E-01
        1   -1    0    0  501    0  0.00000000000E+00  0.00000000000E+00  0.11980377275E+04  0.11980377276E+04  0.50400001928E-02 0.  1.
       -1   -1    0    0    0  501  0.00000000000E+00  0.00000000000E+00 -0.60432201549E+03  0.60432201551E+03  0.50400001928E-02 0. -1.
    10030    2    1    2    0    0  0.00000000000E+00  0.00000000000E+00  0.59371571205E+03  0.18023597431E+04  0.17017644657E+04 0.  0.
        4    1    3    3  502    0 -0.49549476736E+03 -0.15210593473E+03 -0.41782537534E+03  0.66575591401E+03  0.12699999809E+01 0. -1.
       -4    1    3    3    0  502  0.49549476736E+03  0.15210593473E+03  0.10115410874E+04  0.11366038291E+04  0.12699999809E+01 0.  1.
</event>
<event>
 5   0  0.1393870E-04  0.1721020E+04  0.7818609E-02  0.8749466E-01
       -2   -1    0    0    0  501  0.00000000000E+00  0.00000000000E+00  0.46470797198E+03  0.46470797199E+03  0.25500000920E-02 0. -1.
        2   -1    0    0  501    0  0.00000000000E+00  0.00000000000E+00 -0.15934248365E+04  0.15934248365E+04  0.25500000920E-02 0.  1.
    10030    2    1    2    0    0  0.00000000000E+00  0.00000000000E+00 -0.11287168645E+04  0.20581328085E+04  0.17210197260E+04 0.  0.
        3    1    3    3  502    0 -0.42220908439E+03  0.57536737453E+03 -0.11393380198E+04  0.13443954999E+04  0.10100000352E+00 0.  1.
       -3    1    3    3    0  502  0.42220908439E+03 -0.57536737453E+03  0.10621155210E+02  0.71373730864E+03  0.10100000352E+00 0. -1.
</event>
<event>
 5   0  0.1255362E-04  0.1702643E+04  0.7818609E-02  0.8759858E-01
        2   -1    0    0  501    0  0.00000000000E+00  0.00000000000E+00  0.96772753186E+03  0.96772753186E+03  0.25500000920E-02 0.  1.
       -2   -1    0    0    0  501  0.00000000000E+00  0.00000000000E+00 -0.74891781882E+03  0.74891781882E+03  0.25500000920E-02 0. -1.
    10030    2    1    2    0    0  0.00000000000E+00  0.00000000000E+00  0.21880971304E+03  0.17166453507E+04  0.17026431128E+04 0.  0.
        1    1    3    3  502    0 -0.78868163152E+03  0.19647537980E+03 -0.14591098441E+03  0.82577921151E+03  0.50400001928E-02 0. -1.
       -1    1    3    3    0  502  0.78868163152E+03 -0.19647537980E+03  0.36472069744E+03  0.89086613918E+03  0.50400001928E-02 0.  1.
</event>
<event>
 5   0  0.6564887E-05  0.1749269E+04  0.7818609E-02  0.8733753E-01
        1   -1    0    0  501    0  0.00000000000E+00  0.00000000000E+00  0.21624614522E+04  0.21624614522E+04  0.50400001928E-02 0. -1.
       -1   -1    0    0    0  501  0.00000000000E+00  0.00000000000E+00 -0.35375673174E+03  0.35375673178E+03  0.50400001928E-02 0.  1.
    10030    2    1    2    0    0  0.00000000000E+00  0.00000000000E+00  0.18087047205E+04  0.25162181840E+04  0.17492687568E+04 0.  0.
        4    1    3    3  502    0  0.87269328405E+03  0.56889006411E+02  0.88651593976E+03  0.12452879392E+04  0.12699999809E+01 0.  1.
       -4    1    3    3    0  502 -0.87269328405E+03 -0.56889006411E+02  0.92218878072E+03  0.12709302448E+04  0.12699999809E+01 0. -1.
</event>
<event>
 5   0  0.1255362E-04  0.1590599E+04  0.7818609E-02  0.8826344E-01
       -2   -1    0    0    0  501  0.00000000000E+00  0.00000000000E+00  0.40855000498E+03  0.40855000499E+03  0.25500000920E-02 0. -1.
        2   -1    0    0  501    0  0.00000000000E+00  0.00000000000E+00 -0.15481608779E+04  0.15481608779E+04  0.25500000920E-02 0.  1.
    10030    2    1    2    0    0  0.00000000000E+00  0.00000000000E+00 -0.11396108729E+04  0.19567108829E+04  0.15905987984E+04 0.  0.
        1    1    3    3  502    0 -0.64874851543E+03 -0.45357698380E+03 -0.66425206725E+03  0.10333622431E+04  0.50400001928E-02 0.  1.
       -1    1    3    3    0  502  0.64874851543E+03  0.45357698380E+03 -0.47535880565E+03  0.92334863981E+03  0.50400001928E-02 0. -1.
</event>
<event>
 5   0  0.1393870E-04  0.1696759E+04  0.7818609E-02  0.8763215E-01
       -2   -1    0    0    0  501  0.00000000000E+00  0.00000000000E+00  0.55040285780E+03  0.55040285780E+03  0.25500000920E-02 0.  1.
        2   -1    0    0  501    0  0.00000000000E+00  0.00000000000E+00 -0.13076745198E+04  0.13076745198E+04  0.25500000920E-02 0. -1.
    10030    2    1    2    0    0  0.00000000000E+00  0.00000000000E+00 -0.75727166196E+03  0.18580773776E+04  0.16967590197E+04 0.  0.
        3    1    3    3  502    0 -0.19183203817E+03  0.27567754727E+03  0.47450384130E+03  0.58133600142E+03  0.10100000352E+00 0.  1.
       -3    1    3    3    0  502  0.19183203817E+03 -0.27567754727E+03 -0.12317755033E+04  0.12767413761E+04  0.10100000352E+00 0. -1.
</event>
<event>
 5   0  0.6539134E-05  0.1697443E+04  0.7818609E-02  0.8762824E-01
        1   -1    0    0  501    0  0.00000000000E+00  0.00000000000E+00  0.89678672466E+03  0.89678672467E+03  0.50400001928E-02 0.  1.
       -1   -1    0    0    0  501  0.00000000000E+00  0.00000000000E+00 -0.80323245422E+03  0.80323245424E+03  0.50400001928E-02 0. -1.
    10030    2    1    2    0    0  0.00000000000E+00  0.00000000000E+00  0.93554270439E+02  0.17000191789E+04  0.16974430203E+04 0.  0.
        2    1    3    3  502    0 -0.62189777995E+03 -0.55855672016E+03 -0.10036671696E+03  0.84191207155E+03  0.25500000920E-02 0. -1.
       -2    1    3    3    0  502  0.62189777995E+03  0.55855672016E+03  0.19392098740E+03  0.85810710736E+03  0.25500000920E-02 0.  1.
</event>
<event>
 5   0  0.1255362E-04  0.1694685E+04  0.7818609E-02  0.8764401E-01
        2   -1    0    0  501    0  0.00000000000E+00  0.00000000000E+00  0.19418619540E+04  0.19418619540E+04  0.25500000920E-02 0. -1.
       -2   -1    0    0    0  501  0.00000000000E+00  0.00000000000E+00 -0.36974281511E+03  0.36974281512E+03  0.25500000920E-02 0.  1.
    10030    2    1    2    0    0  0.00000000000E+00  0.00000000000E+00  0.15721191389E+04  0.23116047692E+04  0.16946852280E+04 0.  0.
        1    1    3    3  502    0 -0.24392886292E+03 -0.21235166469E+03  0.18543630632E+04  0.18823540819E+04  0.50400001928E-02 0. -1.
       -1    1    3    3    0  502  0.24392886292E+03  0.21235166469E+03 -0.28224392427E+03  0.42925068722E+03  0.50400001928E-02 0.  1.
</event>
<event>
 5   0  0.6564887E-05  0.1700234E+04  0.7818609E-02  0.8761231E-01
       -1   -1    0    0    0  501  0.00000000000E+00  0.00000000000E+00  0.14462912923E+04  0.14462912923E+04  0.50400001928E-02 0.  1.
        1   -1    0    0  501    0  0.00000000000E+00  0.00000000000E+00 -0.49969083085E+03  0.49969083087E+03  0.50400001928E-02 0. -1.
    10030    2    1    2    0    0  0.00000000000E+00  0.00000000000E+00  0.94660046144E+03  0.19459821232E+04  0.17002335105E+04 0.  0.
        4    1    3    3  502    0  0.60665038674E+03 -0.37790418906E+03  0.10001119055E+04  0.12292524982E+04  0.12699999809E+01 0.  1.
       -4    1    3    3    0  502 -0.60665038674E+03  0.37790418906E+03 -0.53511444026E+02  0.71672962502E+03  0.12699999809E+01 0. -1.
</event>
<event>
 5   0  0.6539134E-05  0.1697663E+04  0.7818609E-02  0.8762698E-01
       -1   -1    0    0    0  501  0.00000000000E+00  0.00000000000E+00  0.87500088097E+03  0.87500088099E+03  0.50400001928E-02 0.  1.
        1   -1    0    0  501    0  0.00000000000E+00  0.00000000000E+00 -0.82344524630E+03  0.82344524632E+03  0.50400001928E-02 0. -1.
    10030    2    1    2    0    0  0.00000000000E+00  0.00000000000E+00  0.51555634668E+02  0.16984461273E+04  0.16976634719E+04 0.  0.
        2    1    3    3  502    0 -0.51277914996E+03  0.43675242712E+03  0.54256234872E+03  0.86490984587E+03  0.25500000920E-02 0.  1.
       -2    1    3    3    0  502  0.51277914996E+03 -0.43675242712E+03 -0.49100671405E+03  0.83353628144E+03  0.25500000920E-02 0. -1.
</event>
<event>
 5   0  0.6601906E-05  0.1683543E+04  0.7818609E-02  0.8770806E-01
       -1   -1    0    0    0  501  0.00000000000E+00  0.00000000000E+00  0.66031230564E+03  0.66031230566E+03  0.50400001928E-02 0.  1.
        1   -1    0    0  501    0  0.00000000000E+00  0.00000000000E+00 -0.10730969998E+04  0.10730969998E+04  0.50400001928E-02 0. -1.
    10030    2    1    2    0    0  0.00000000000E+00  0.00000000000E+00 -0.41278469416E+03  0.17334093055E+04  0.16835428764E+04 0.  0.
        1    1    3    3  502    0  0.38175052224E+03  0.52749858787E+03 -0.75566436092E+03  0.99750531218E+03  0.50400001928E-02 0.  1.
       -1    1    3    3    0  502 -0.38175052224E+03 -0.52749858787E+03  0.34287966676E+03  0.73590399329E+03  0.50400001928E-02 0. -1.
</event>
<event>
 5   0  0.1255362E-04  0.1702194E+04  0.7818609E-02  0.8760114E-01
       -2   -1    0    0    0  501  0.00000000000E+00  0.00000000000E+00  0.90299438763E+03  0.90299438763E+03  0.25500000920E-02 0. -1.
        2   -1    0    0  501    0  0.00000000000E+00  0.00000000000E+00 -0.80218225838E+03  0.80218225839E+03  0.25500000920E-02 0.  1.
    10030    2    1    2    0    0  0.00000000000E+00  0.00000000000E+00  0.10081212925E+03  0.17051766460E+04  0.17021939692E+04 0.  0.
        1    1    3    3  502    0  0.37410979765E+03 -0.23914827502E+03  0.77777480948E+03  0.89559125299E+03  0.50400001928E-02 0. -1.
       -1    1    3    3    0  502 -0.37410979765E+03  0.23914827502E+03 -0.67696268024E+03  0.80958539303E+03  0.50400001928E-02 0.  1.
</event>
<event>
 5   0  0.6601906E-05  0.1698049E+04  0.7818609E-02  0.8762478E-01
       -1   -1    0    0    0  501  0.00000000000E+00  0.00000000000E+00  0.46293844752E+03  0.46293844755E+03  0.50400001928E-02 0.  1.
        1   -1    0    0  501    0  0.00000000000E+00  0.00000000000E+00 -0.15571025873E+04  0.15571025874E+04  0.50400001928E-02 0. -1.
    10030    2    1    2    0    0  0.00000000000E+00  0.00000000000E+00 -0.10941641398E+04  0.20200410349E+04  0.16980490623E+04 0.  0.
        1    1    3    3  502    0 -0.66873253579E+02 -0.78985785340E+03 -0.18528125493E+03  0.81404950960E+03  0.50400001928E-02 0.  1.
       -1    1    3    3    0  502  0.66873253579E+02  0.78985785340E+03 -0.90888288490E+03  0.12059915253E+04  0.50400001928E-02 0. -1.
</event>
<event>
 5   0  0.6564887E-05  0.1700989E+04  0.7818609E-02  0.8760800E-01
        1   -1    0    0  501    0  0.00000000000E+00  0.00000000000E+00  0.12071592675E+04  0.12071592675E+04  0.50400001928E-02 0.  1.
       -1   -1    0    0    0  501  0.00000000000E+00  0.00000000000E+00 -0.59920926985E+03  0.59920926987E+03  0.50400001928E-02 0. -1.
    10030    2    1    2    0    0  0.00000000000E+00  0.00000000000E+00  0.60794999762E+03  0.18063685374E+04  0.17009891514E+04 0.  0.
        4    1    3    3  502    0 -0.60375703728E+03  0.41037651998E+03  0.76736575806E+03  0.10591427042E+04  0.12699999809E+01 0.  1.
       -4    1    3    3    0  502  0.60375703728E+03 -0.41037651998E+03 -0.15941576044E+03  0.74722583320E+03  0.12699999809E+01 0. -1.
</event>
<event>
 5   0  0.1269175E-04  0.1698446E+04  0.7818609E-02  0.8762251E-01
        2   -1    0    0  501    0  0.00000000000E+00  0.00000000000E+00  0.84708118450E+03  0.84708118450E+03  0.25500000920E-02 0. -1.
       -2   -1    0    0    0  501  0.00000000000E+00  0.00000000000E+00 -0.85137016064E+03  0.85137016065E+03  0.25500000920E-02 0.  1.
    10030    2    1    2    0    0  0.00000000000E+00  0.00000000000E+00 -0.42889761465E+01  0.16984513451E+04  0.16984459298E+04 0.  0.
        2    1    3    3  502    0  0.11152464144E+03  0.79598059707E+03  0.27200376893E+03  0.84853338584E+03  0.25500000920E-02 0.  1.
       -2    1    3    3    0  502 -0.11152464144E+03 -0.79598059707E+03 -0.27629274508E+03  0.84991795931E+03  0.25500000920E-02 0. -1.
</event>
<event>
 5   0  0.1269175E-04  0.1700622E+04  0.7818609E-02  0.8761010E-01
       -2   -1    0    0    0  501  0.00000000000E+00  0.00000000000E+00  0.69071732368E+03  0.69071732368E+03  0.25500000920E-02 0. -1.
        2   -1    0    0  501    0  0.00000000000E+00  0.00000000000E+00 -0.10467790752E+04  0.10467790752E+04  0.25500000920E-02 0.  1.
    10030    2    1    2    0    0  0.00000000000E+00  0.00000000000E+00 -0.35606175152E+03  0.17374963989E+04  0.17006215820E+04 0.  0.
        2    1    3    3  502    0  0.74246394618E+02  0.76848031036E+03  0.18600090163E+03  0.79414787662E+03  0.25500000920E-02 0. -1.
       -2    1    3    3    0  502 -0.74246394618E+02 -0.76848031036E+03 -0.54206265315E+03  0.94334852227E+03  0.25500000920E-02 0.  1.
</event>
<event>
 5   0  0.4720875E-05  0.1699674E+04  0.7818609E-02  0.8761550E-01
        4   -1    0    0  501    0  0.00000000000E+00  0.00000000000E+00  0.15213803797E+04  0.15213809098E+04  0.12699999809E+01 0. -1.
       -4   -1    0    0    0  501  0.00000000000E+00  0.00000000000E+00 -0.47471431647E+03  0.47471601528E+03  0.12699999809E+01 0.  1.
    10030    2    1    2    0    0  0.00000000000E+00  0.00000000000E+00  0.10466660632E+04  0.19960969250E+04  0.16996744060E+04 0.  0.
        1    1    3    3  502    0 -0.71673603064E+03 -0.19343478912E+03  0.10091083655E+04  0.12527678351E+04  0.50400001928E-02 0. -1.
       -1    1    3    3    0  502  0.71673603064E+03  0.19343478912E+03  0.37557697675E+02  0.74332908993E+03  0.50400001928E-02 0.  1.
</event>
<event>
 5   0  0.1255362E-04  0.1709087E+04  0.7818609E-02  0.8756199E-01
        2   -1    0    0  501    0  0.00000000000E+00  0.00000000000E+00  0.13381927008E+04  0.13381927008E+04  0.25500000920E-02 0.  1.
       -2   -1    0    0    0  501  0.00000000000E+00  0.00000000000E+00 -0.54569460321E+03  0.54569460322E+03  0.25500000920E-02 0. -1.
    10030    2    1    2    0    0  0.00000000000E+00  0.00000000000E+00  0.79249809760E+03  0.18838873040E+04  0.17090869316E+04 0.  0.
        1    1    3    3  502    0  0.42919259370E+03  0.58892504046E+03  0.88822229018E+03  0.11489028778E+04  0.50400001928E-02 0.  1.
       -1    1    3    3    0  502 -0.42919259370E+03 -0.58892504046E+03 -0.95724192582E+02  0.73498442626E+03  0.50400001928E-02 0. -1.
</event>
<event>
 5   0  0.6615842E-05  0.1693132E+04  0.7818609E-02  0.8765291E-01
       -1   -1    0    0    0  501  0.00000000000E+00  0.00000000000E+00  0.64462850890E+03  0.64462850892E+03  0.50400001928E-02 0. -1.
        1   -1    0    0  501    0  0.00000000000E+00  0.00000000000E+00 -0.11117633726E+04  0.11117633726E+04  0.50400001928E-02 0.  1.
    10030    2    1    2    0    0  0.00000000000E+00  0.00000000000E+00 -0.46713486366E+03  0.17563918815E+04  0.16931324403E+04 0.  0.
        3    1    3    3  502    0  0.53408269656E+03 -0.63910070362E+03 -0.76310964662E+02  0.83637157392E+03  0.10100000352E+00 0.  1.
       -3    1    3    3    0  502 -0.53408269656E+03  0.63910070362E+03 -0.39082389900E+03  0.92002030758E+03  0.10100000352E+00 0. -1.
</event>
<event>
 5   0  0.1285639E-04  0.1701674E+04  0.7818609E-02  0.8760410E-01
        2   -1    0    0  501    0  0.00000000000E+00  0.00000000000E+00  0.10206192088E+04  0.10206192088E+04  0.25500000920E-02 0.  1.
       -2   -1    0    0    0  501  0.00000000000E+00  0.00000000000E+00 -0.70929829933E+03  0.70929829933E+03  0.25500000920E-02 0. -1.
    10030    2    1    2    0    0  0.00000000000E+00  0.00000000000E+00  0.31132090944E+03  0.17299175081E+04  0.17016738454E+04 0.  0.
        4    1    3    3  502    0 -0.58337593105E+02 -0.67619958984E+03  0.67727774740E+03  0.95883049602E+03  0.12699999809E+01 0. -1.
       -4    1    3    3    0  502  0.58337593105E+02  0.67619958984E+03 -0.36595683795E+03  0.77108701209E+03  0.12699999809E+01 0.  1.
</event>
<event>
 5   0  0.1333546E-04  0.1693920E+04  0.7818609E-02  0.8764840E-01
       -2   -1    0    0    0  501  0.00000000000E+00  0.00000000000E+00  0.51895603197E+03  0.51895603198E+03  0.25500000920E-02 0. -1.
        2   -1    0    0  501    0  0.00000000000E+00  0.00000000000E+00 -0.13822776350E+04  0.13822776350E+04  0.25500000920E-02 0.  1.
    10030    2    1    2    0    0  0.00000000000E+00  0.00000000000E+00 -0.86332160303E+03  0.19012336670E+04  0.16939200885E+04 0.  0.
        5    1    3    3  502    0 -0.14382116488E+01  0.55489519419E+03  0.28649884019E+03  0.62451134531E+03  0.46999998093E+01 0. -1.
       -5    1    3    3    0  502  0.14382116488E+01 -0.55489519419E+03 -0.11498204432E+04  0.12767223217E+04  0.46999998093E+01 0.  1.
</event>
<event>
 5   0  0.1255362E-04  0.1698827E+04  0.7818609E-02  0.8762034E-01
       -2   -1    0    0    0  501  0.00000000000E+00  0.00000000000E+00  0.61274000005E+03  0.61274000005E+03  0.25500000920E-02 0. -1.
        2   -1    0    0  501    0  0.00000000000E+00  0.00000000000E+00 -0.11775031245E+04  0.11775031245E+04  0.25500000920E-02 0.  1.
    10030    2    1    2    0    0  0.00000000000E+00  0.00000000000E+00 -0.56476312447E+03  0.17902431246E+04  0.16988269654E+04 0.  0.
        1    1    3    3  502    0 -0.41470495027E+03  0.23068117551E+03 -0.10247834362E+04  0.11293250602E+04  0.50400001928E-02 0.  1.
       -1    1    3    3    0  502  0.41470495027E+03 -0.23068117551E+03  0.46002031175E+03  0.66091806433E+03  0.50400001928E-02 0. -1.
</event>
<event>
 5   0  0.6601906E-05  0.1697641E+04  0.7818609E-02  0.8762711E-01
        1   -1    0    0  501    0  0.00000000000E+00  0.00000000000E+00  0.15038703680E+04  0.15038703680E+04  0.50400001928E-02 0.  1.
       -1   -1    0    0    0  501  0.00000000000E+00  0.00000000000E+00 -0.47909443739E+03  0.47909443741E+03  0.50400001928E-02 0. -1.
    10030    2    1    2    0    0  0.00000000000E+00  0.00000000000E+00  0.10247759306E+04  0.19829648054E+04  0.16976406309E+04 0.  0.
        1    1    3    3  502    0  0.32526388399E+02 -0.65814264813E+03  0.11373727793E+04  0.13144681625E+04  0.50400001928E-02 0. -1.
       -1    1    3    3    0  502 -0.32526388399E+02  0.65814264813E+03 -0.11259684864E+03  0.66849664291E+03  0.50400001928E-02 0.  1.
</event>
<event>
 5   0  0.6539134E-05  0.1702139E+04  0.7818609E-02  0.8760146E-01
       -1   -1    0    0    0  501  0.00000000000E+00  0.00000000000E+00  0.56037151453E+03  0.56037151455E+03  0.50400001928E-02 0.  1.
        1   -1    0    0  501    0  0.00000000000E+00  0.00000000000E+00 -0.12925692901E+04  0.12925692901E+04  0.50400001928E-02 0. -1.
    10030    2    1    2    0    0  0.00000000000E+00  0.00000000000E+00 -0.73219777552E+03  0.18529408046E+04  0.17021386674E+04 0.  0.
        2    1    3    3  502    0 -0.59352394438E+02  0.56938940840E+02 -0.12882327737E+04  0.12908556964E+04  0.25500000920E-02 0. -1.
       -2    1    3    3    0  502  0.59352394438E+02 -0.56938940840E+02  0.55603499815E+03  0.56208510823E+03  0.25500000920E-02 0.  1.
</event>
<event>
 5   0  0.6539134E-05  0.1695995E+04  0.7818609E-02  0.8763652E-01
        1   -1    0    0  501    0  0.00000000000E+00  0.00000000000E+00  0.10591172535E+04  0.10591172535E+04  0.50400001928E-02 0.  1.
       -1   -1    0    0    0  501  0.00000000000E+00  0.00000000000E+00 -0.67896160427E+03  0.67896160429E+03  0.50400001928E-02 0. -1.
    10030    2    1    2    0    0  0.00000000000E+00  0.00000000000E+00  0.38015564921E+03  0.17380788578E+04  0.16959952235E+04 0.  0.
        2    1    3    3  502    0 -0.75050772709E+03 -0.83851718865E+02  0.58540486267E+03  0.95550605043E+03  0.25500000920E-02 0.  1.
       -2    1    3    3    0  502  0.75050772709E+03  0.83851718865E+02 -0.20524921346E+03  0.78257280735E+03  0.25500000920E-02 0. -1.
</event>
<event>
 5   0  0.1269175E-04  0.1698584E+04  0.7818609E-02  0.8762173E-01
       -2   -1    0    0    0  501  0.00000000000E+00  0.00000000000E+00  0.71820358985E+03  0.71820358985E+03  0.25500000920E-02 0. -1.
        2   -1    0    0  501    0  0.00000000000E+00  0.00000000000E+00 -0.10043065380E+04  0.10043065380E+04  0.25500000920E-02 0.  1.
    10030    2    1    2    0    0  0.00000000000E+00  0.00000000000E+00 -0.28610294816E+03  0.17225101279E+04  0.16985835993E+04 0.  0.
        2    1    3    3  502    0  0.57512173384E+03  0.21066313292E+03  0.45358342710E+03  0.76215607958E+03  0.25500000920E-02 0. -1.
       -2    1    3    3    0  502 -0.57512173384E+03 -0.21066313292E+03 -0.73968637526E+03  0.96035404828E+03  0.25500000920E-02 0.  1.
</event>
<event>
 5   0  0.1285639E-04  0.1697503E+04  0.7818609E-02  0.8762790E-01
        2   -1    0    0  501    0  0.00000000000E+00  0.00000000000E+00  0.16844629116E+04  0.16844629117E+04  0.25500000920E-02 0.  1.
       -2   -1    0    0    0  501  0.00000000000E+00  0.00000000000E+00 -0.42766109294E+03  0.42766109295E+03  0.25500000920E-02 0. -1.
    10030    2    1    2    0    0  0.00000000000E+00  0.00000000000E+00  0.12568018187E+04  0.21121240046E+04  0.16975031662E+04 0.  0.
        4    1    3    3  502    0 -0.26898223337E+03  0.65717610036E+03  0.49929115191E+02  0.71184717334E+03  0.12699999809E+01 0. -1.
       -4    1    3    3    0  502  0.26898223337E+03 -0.65717610036E+03  0.12068727035E+04  0.14002768313E+04  0.12699999809E+01 0.  1.
</event>
<event>
 5   0  0.1333546E-04  0.1708508E+04  0.7818609E-02  0.8756527E-01
        2   -1    0    0  501    0  0.00000000000E+00  0.00000000000E+00  0.81171515616E+03  0.81171515616E+03  0.25500000920E-02 0.  1.
       -2   -1    0    0    0  501  0.00000000000E+00  0.00000000000E+00 -0.89902242848E+03  0.89902242848E+03  0.25500000920E-02 0. -1.
    10030    2    1    2    0    0  0.00000000000E+00  0.00000000000E+00 -0.87307272318E+02  0.17107375846E+04  0.17085082744E+04 0.  0.
        5    1    3    3  502    0  0.13023830996E+03  0.66645662284E+03 -0.56259776489E+03  0.88185303910E+03  0.46999998093E+01 0. -1.
       -5    1    3    3    0  502 -0.13023830996E+03 -0.66645662284E+03  0.47529049257E+03  0.82888454555E+03  0.46999998093E+01 0.  1.
</event>
<event>
 5   0  0.6601906E-05  0.1696811E+04  0.7818609E-02  0.8763186E-01
       -1   -1    0    0    0  501  0.00000000000E+00  0.00000000000E+00  0.86309056076E+03  0.86309056078E+03  0.50400001928E-02 0. -1.
        1   -1    0    0  501    0  0.00000000000E+00  0.00000000000E+00 -0.83396981409E+03  0.83396981410E+03  0.50400001928E-02 0.  1.
    10030    2    1    2    0    0  0.00000000000E+00  0.00000000000E+00  0.29120746677E+02  0.16970603749E+04  0.16968105074E+04 0.  0.
        1    1    3    3  502    0 -0.62320168236E+03  0.53440059473E+03 -0.19954389961E+03  0.84485626022E+03  0.50400001928E-02 0.  1.
       -1    1    3    3    0  502  0.62320168236E+03 -0.53440059473E+03  0.22866464628E+03  0.85220411465E+03  0.50400001928E-02 0. -1.
</event>
<event>
 5   0  0.6564887E-05  0.1701585E+04  0.7818609E-02  0.8760461E-01
        1   -1    0    0  501    0  0.00000000000E+00  0.00000000000E+00  0.21153180070E+04  0.21153180070E+04  0.50400001928E-02 0.  1.
       -1   -1    0    0    0  501  0.00000000000E+00  0.00000000000E+00 -0.34219329105E+03  0.34219329109E+03  0.50400001928E-02 0. -1.
    10030    2    1    2    0    0  0.00000000000E+00  0.00000000000E+00  0.17731247159E+04  0.24575112981E+04  0.17015847090E+04 0.  0.
        4    1    3    3  502    0 -0.15217812388E+03  0.43475872022E+03 -0.14652742929E+03  0.48336862396E+03  0.12699999809E+01 0. -1.
       -4    1    3    3    0  502  0.15217812388E+03 -0.43475872022E+03  0.19196521452E+04  0.19741426741E+04  0.12699999809E+01 0.  1.
</event>
<event>
 5   0  0.1269175E-04  0.1703244E+04  0.7818609E-02  0.8759517E-01
       -2   -1    0    0    0  501  0.00000000000E+00  0.00000000000E+00  0.44252299011E+03  0.44252299012E+03  0.25500000920E-02 0. -1.
        2   -1    0    0  501    0  0.00000000000E+00  0.00000000000E+00 -0.16389199845E+04  0.16389199845E+04  0.25500000920E-02 0.  1.
    10030    2    1    2    0    0  0.00000000000E+00  0.00000000000E+00 -0.11963969944E+04  0.20814429746E+04  0.17032436961E+04 0.  0.
        2    1    3    3  502    0 -0.62346493798E+02  0.60838547964E+03 -0.13224502988E+04  0.14570157069E+04  0.25500000920E-02 0.  1.
       -2    1    3    3    0  502  0.62346493798E+02 -0.60838547964E+03  0.12605330447E+03  0.62442726774E+03  0.25500000920E-02 0. -1.
</event>
<event>
 5   0  0.1255362E-04  0.1700249E+04  0.7818609E-02  0.8761222E-01
       -2   -1    0    0    0  501  0.00000000000E+00  0.00000000000E+00  0.35364342462E+03  0.35364342463E+03  0.25500000920E-02 0.  1.
        2   -1    0    0  501    0  0.00000000000E+00  0.00000000000E+00 -0.20436167127E+04  0.20436167127E+04  0.25500000920E-02 0. -1.
    10030    2    1    2    0    0  0.00000000000E+00  0.00000000000E+00 -0.16899732881E+04  0.23972601374E+04  0.17002489381E+04 0.  0.
        1    1    3    3  502    0  0.74696546310E+03  0.30720086223E+03 -0.47093380107E+03  0.93493765452E+03  0.50400001928E-02 0. -1.
       -1    1    3    3    0  502 -0.74696546310E+03 -0.30720086223E+03 -0.12190394871E+04  0.14623224829E+04  0.50400001928E-02 0.  1.
</event>
<event>
 5   0  0.1255362E-04  0.1709901E+04  0.7818609E-02  0.8755738E-01
       -2   -1    0    0    0  501  0.00000000000E+00  0.00000000000E+00  0.98273228202E+03  0.98273228202E+03  0.25500000920E-02 0.  1.
        2   -1    0    0  501    0  0.00000000000E+00  0.00000000000E+00 -0.74378356169E+03  0.74378356169E+03  0.25500000920E-02 0. -1.
    10030    2    1    2    0    0  0.00000000000E+00  0.00000000000E+00  0.23894872033E+03  0.17265158437E+04  0.17099007186E+04 0.  0.
        1    1    3    3  502    0 -0.60668727823E+03 -0.16412589563E+03 -0.46575517532E+03  0.78226251766E+03  0.50400001928E-02 0. -1.
       -1    1    3    3    0  502  0.60668727823E+03  0.16412589563E+03  0.70470389565E+03  0.94425332605E+03  0.50400001928E-02 0.  1.
</event>
<event>
 5   0  0.6539134E-05  0.1697837E+04  0.7818609E-02  0.8762599E-01
        1   -1    0    0  501    0  0.00000000000E+00  0.00000000000E+00  0.10844925236E+04  0.10844925236E+04  0.50400001928E-02 0.  1.
       -1   -1    0    0    0  501  0.00000000000E+00  0.00000000000E+00 -0.66451583482E+03  0.66451583484E+03  0.50400001928E-02 0. -1.
    10030    2    1    2    0    0  0.00000000000E+00  0.00000000000E+00  0.41997668879E+03  0.17490083585E+04  0.16978368057E+04 0.  0.
        2    1    3    3  502    0  0.14956957516E+03 -0.60110531402E+03  0.80796958999E+03  0.10180930776E+04  0.25500000920E-02 0.  1.
       -2    1    3    3    0  502 -0.14956957516E+03  0.60110531402E+03 -0.38799290120E+03  0.73091528083E+03  0.25500000920E-02 0. -1.
</event>
<event>
 5   0  0.1333546E-04  0.1719244E+04  0.7818609E-02  0.8750464E-01
       -2   -1    0    0    0  501  0.00000000000E+00  0.00000000000E+00  0.13051598446E+04  0.13051598446E+04  0.25500000920E-02 0.  1.
        2   -1    0    0  501    0  0.00000000000E+00  0.00000000000E+00 -0.56617593523E+03  0.56617593524E+03  0.25500000920E-02 0. -1.
    10030    2    1    2    0    0  0.00000000000E+00  0.00000000000E+00  0.73898390936E+03  0.18713357798E+04  0.17192441312E+04 0.  0.
        5    1    3    3  502    0  0.79540730207E+03 -0.30688871498E+03  0.24988688800E+03  0.88843627028E+03  0.46999998093E+01 0. -1.
       -5    1    3    3    0  502 -0.79540730207E+03  0.30688871498E+03  0.48909702135E+03  0.98289950954E+03  0.46999998093E+01 0.  1.
</event>
<event>
 5   0  0.6564887E-05  0.1700918E+04  0.7818609E-02  0.8760841E-01
       -1   -1    0    0    0  501  0.00000000000E+00  0.00000000000E+00  0.61646140008E+03  0.61646140010E+03  0.50400001928E-02 0. -1.
        1   -1    0    0  501    0  0.00000000000E+00  0.00000000000E+00 -0.11732773476E+04  0.11732773476E+04  0.50400001928E-02 0.  1.
    10030    2    1    2    0    0  0.00000000000E+00  0.00000000000E+00 -0.55681594752E+03  0.17897387477E+04  0.17009176305E+04 0.  0.
        4    1    3    3  502    0 -0.50982468725E+03 -0.22094702986E+03 -0.95587703273E+03  0.11056406814E+04  0.12699999809E+01 0.  1.
       -4    1    3    3    0  502  0.50982468725E+03  0.22094702986E+03  0.39906108521E+03  0.68409806633E+03  0.12699999809E+01 0. -1.
</event>
<event>
 5   0  0.6601906E-05  0.1703629E+04  0.7818609E-02  0.8759297E-01
        1   -1    0    0  501    0  0.00000000000E+00  0.00000000000E+00  0.12526807186E+04  0.12526807186E+04  0.50400001928E-02 0. -1.
       -1   -1    0    0    0  501  0.00000000000E+00  0.00000000000E+00 -0.57922829560E+03  0.57922829562E+03  0.50400001928E-02 0.  1.
    10030    2    1    2    0    0  0.00000000000E+00  0.00000000000E+00  0.67345242298E+03  0.18319090142E+04  0.17036292056E+04 0.  0.
        1    1    3    3  502    0  0.39584975143E+03 -0.57738345432E+03 -0.18511959958E+03  0.72411183197E+03  0.50400001928E-02 0.  1.
       -1    1    3    3    0  502 -0.39584975143E+03  0.57738345432E+03  0.85857202256E+03  0.11077971822E+04  0.50400001928E-02 0. -1.
</event>
<event>
 5   0  0.6601906E-05  0.1736860E+04  0.7818609E-02  0.8740616E-01
        1   -1    0    0  501    0  0.00000000000E+00  0.00000000000E+00  0.10158570740E+04  0.10158570740E+04  0.50400001928E-02 0.  1.
       -1   -1    0    0    0  501  0.00000000000E+00  0.00000000000E+00 -0.74239858424E+03  0.74239858426E+03  0.50400001928E-02 0. -1.
    10030    2    1    2    0    0  0.00000000000E+00  0.00000000000E+00  0.27345848979E+03  0.17582556583E+04  0.17368602173E+04 0.  0.
        1    1    3    3  502    0 -0.66961836284E+03 -0.89490515825E+02  0.68913756956E+03  0.96504294934E+03  0.50400001928E-02 0.  1.
       -1    1    3    3    0  502  0.66961836284E+03  0.89490515825E+02 -0.41567907977E+03  0.79321270896E+03  0.50400001928E-02 0. -1.
</event>
<event>
 5   0  0.6539134E-05  0.1813247E+04  0.7818609E-02  0.8699286E-01
       -1   -1    0    0    0  501  0.00000000000E+00  0.00000000000E+00  0.11805260252E+04  0.11805260252E+04  0.50400001928E-02 0.  1.
        1   -1    0    0  501    0  0.00000000000E+00  0.00000000000E+00 -0.69627114186E+03  0.69627114188E+03  0.50400001928E-02 0. -1.
    10030    2    1    2    0    0  0.00000000000E+00  0.00000000000E+00  0.48425488336E+03  0.18767971671E+04  0.18132470362E+04 0.  0.
        2    1    3    3  502    0  0.55549106432E+03 -0.30683633403E+03 -0.42805882413E+03  0.76547580977E+03  0.25500000920E-02 0. -1.
       -2    1    3    3    0  502 -0.55549106432E+03  0.30683633403E+03  0.91231370749E+03  0.11113213573E+04  0.25500000920E-02 0.  1.
</event>
<event>
 5   0  0.6615842E-05  0.1685792E+04  0.7818609E-02  0.8769510E-01
       -1   -1    0    0    0  501  0.00000000000E+00  0.00000000000E+00  0.58909934953E+03  0.58909934955E+03  0.50400001928E-02 0. -1.
        1   -1    0    0  501    0  0.00000000000E+00  0.00000000000E+00 -0.12060333757E+04  0.12060333757E+04  0.50400001928E-02 0.  1.
    10030    2    1    2    0    0  0.00000000000E+00  0.00000000000E+00 -0.61693402612E+03  0.17951327252E+04  0.16857917750E+04 0.  0.
        3    1    3    3  502    0 -0.19957223070E+03  0.45952635060E+03  0.41334798922E+03  0.64949989419E+03  0.10100000352E+00 0. -1.
       -3    1    3    3    0  502  0.19957223070E+03 -0.45952635060E+03 -0.10302820153E+04  0.11456328310E+04  0.10100000352E+00 0.  1.
</event>
<event>
 5   0  0.1393870E-04  0.1695268E+04  0.7818609E-02  0.8764068E-01
       -2   -1    0    0    0  501  0.00000000000E+00  0.00000000000E+00  0.36868650927E+03  0.36868650928E+03  0.25500000920E-02 0. -1.
        2   -1    0    0  501    0  0.00000000000E+00  0.00000000000E+00 -0.19487649895E+04  0.19487649895E+04  0.25500000920E-02 0.  1.
    10030    2    1    2    0    0  0.00000000000E+00  0.00000000000E+00 -0.15800784803E+04  0.23174514988E+04  0.16952679569E+04 0.  0.
        3    1    3    3  502    0  0.56997132097E+03  0.55056728981E+03 -0.37881691605E+03  0.87834726243E+03  0.10100000352E+00 0.  1.
       -3    1    3    3    0  502 -0.56997132097E+03 -0.55056728981E+03 -0.12012615642E+04  0.14391042364E+04  0.10100000352E+00 0. -1.
</event>
<event>
 5   0  0.6615842E-05  0.1704189E+04  0.7818609E-02  0.8758979E-01
       -1   -1    0    0    0  501  0.00000000000E+00  0.00000000000E+00  0.62274066884E+03  0.62274066886E+03  0.50400001928E-02 0. -1.
        1   -1    0    0  501    0  0.00000000000E+00  0.00000000000E+00 -0.11659185600E+04  0.11659185600E+04  0.50400001928E-02 0.  1.
    10030    2    1    2    0    0  0.00000000000E+00  0.00000000000E+00 -0.54317789116E+03  0.17886592289E+04  0.17041888439E+04 0.  0.
        3    1    3    3  502    0 -0.50244546033E+03 -0.29322616220E+03  0.38187198724E+03  0.69588738144E+03  0.10100000352E+00 0. -1.
       -3    1    3    3    0  502  0.50244546033E+03  0.29322616220E+03 -0.92504987839E+03  0.10927718474E+04  0.10100000352E+00 0.  1.
</event>
<event>
 5   0  0.1285639E-04  0.1702307E+04  0.7818609E-02  0.8760050E-01
       -2   -1    0    0    0  501  0.00000000000E+00  0.00000000000E+00  0.10379420509E+04  0.10379420509E+04  0.25500000920E-02 0. -1.
        2   -1    0    0  501    0  0.00000000000E+00  0.00000000000E+00 -0.69797914573E+03  0.69797914573E+03  0.25500000920E-02 0.  1.
    10030    2    1    2    0    0  0.00000000000E+00  0.00000000000E+00  0.33996290515E+03  0.17359211966E+04  0.17023065599E+04 0.  0.
        4    1    3    3  502    0 -0.30824047110E+02  0.25601580804E+03  0.99714994821E+03  0.10299533232E+04  0.12699999809E+01 0. -1.
       -4    1    3    3    0  502  0.30824047110E+02 -0.25601580804E+03 -0.65718704305E+03  0.70596787342E+03  0.12699999809E+01 0.  1.
</event>
<event>
 5   0  0.1393870E-04  0.1699797E+04  0.7818609E-02  0.8761480E-01
        2   -1    0    0  501    0  0.00000000000E+00  0.00000000000E+00  0.62928280308E+03  0.62928280309E+03  0.25500000920E-02 0.  1.
       -2   -1    0    0    0  501  0.00000000000E+00  0.00000000000E+00 -0.11478588401E+04  0.11478588401E+04  0.25500000920E-02 0. -1.
    10030    2    1    2    0    0  0.00000000000E+00  0.00000000000E+00 -0.51857603703E+03  0.17771416432E+04  0.16997974332E+04 0.  0.
        3    1    3    3  502    0 -0.64885785267E+03 -0.23811084852E+03  0.25780181473E+03  0.73768223175E+03  0.10100000352E+00 0.  1.
       -3    1    3    3    0  502  0.64885785267E+03  0.23811084852E+03 -0.77637785176E+03  0.10394594115E+04  0.10100000352E+00 0. -1.
</event>
<event>
 5   0  0.1269175E-04  0.1703129E+04  0.7818609E-02  0.8759582E-01
       -2   -1    0    0    0  501  0.00000000000E+00  0.00000000000E+00  0.82071332279E+03  0.82071332280E+03  0.25500000920E-02 0. -1.
        2   -1    0    0  501    0  0.00000000000E+00  0.00000000000E+00 -0.88357586205E+03  0.88357586206E+03  0.25500000920E-02 0.  1.
    10030    2    1    2    0    0  0.00000000000E+00  0.00000000000E+00 -0.62862539259E+02  0.17042891849E+04  0.17031294510E+04 0.  0.
        2    1    3    3  502    0  0.42128406858E+03  0.37813098383E+02 -0.77102343527E+03  0.87942437685E+03  0.25500000920E-02 0.  1.
       -2    1    3    3    0  502 -0.42128406858E+03 -0.37813098383E+02  0.70816089601E+03  0.82486480801E+03  0.25500000920E-02 0. -1.
</event>
<event>
 5   0  0.6834837E-05  0.1698243E+04  0.7818609E-02  0.8762367E-01
       -1   -1    0    0    0  501  0.00000000000E+00  0.00000000000E+00  0.75236839816E+03  0.75236839818E+03  0.50400001928E-02 0.  1.
        1   -1    0    0  501    0  0.00000000000E+00  0.00000000000E+00 -0.95831685298E+03  0.95831685300E+03  0.50400001928E-02 0. -1.
    10030    2    1    2    0    0  0.00000000000E+00  0.00000000000E+00 -0.20594845482E+03  0.17106852512E+04  0.16982429928E+04 0.  0.
        5    1    3    3  502    0  0.16971660423E+03  0.43902702194E+00  0.73509561518E+03  0.75444785900E+03  0.46999998093E+01 0.  1.
       -5    1    3    3    0  502 -0.16971660423E+03 -0.43902702194E+00 -0.94104407000E+03  0.95623739217E+03  0.46999998093E+01 0. -1.
</event>
<event>
 5   0  0.6601906E-05  0.1584845E+04  0.7818609E-02  0.8829912E-01
       -1   -1    0    0    0  501  0.00000000000E+00  0.00000000000E+00  0.84147682182E+03  0.84147682184E+03  0.50400001928E-02 0. -1.
        1   -1    0    0  501    0  0.00000000000E+00  0.00000000000E+00 -0.74622822575E+03  0.74622822577E+03  0.50400001928E-02 0.  1.
    10030    2    1    2    0    0  0.00000000000E+00  0.00000000000E+00  0.95248596070E+02  0.15877050476E+04  0.15848454256E+04 0.  0.
        1    1    3    3  502    0 -0.41715925244E+03 -0.50342809594E+03  0.49617325172E+03  0.82076158866E+03  0.50400001928E-02 0. -1.
       -1    1    3    3    0  502  0.41715925244E+03  0.50342809594E+03 -0.40092465565E+03  0.76694345894E+03  0.50400001928E-02 0.  1.
</event>
<event>
 5   0  0.1285639E-04  0.1703861E+04  0.7818609E-02  0.8759165E-01
       -2   -1    0    0    0  501  0.00000000000E+00  0.00000000000E+00  0.53486865376E+03  0.53486865376E+03  0.25500000920E-02 0. -1.
        2   -1    0    0  501    0  0.00000000000E+00  0.00000000000E+00 -0.13569418438E+04  0.13569418438E+04  0.25500000920E-02 0.  1.
    10030    2    1    2    0    0  0.00000000000E+00  0.00000000000E+00 -0.82207319008E+03  0.18918104976E+04  0.17038610944E+04 0.  0.
        4    1    3    3  502    0  0.27327290089E+03 -0.18094860479E+03 -0.12841394171E+04  0.13253060519E+04  0.12699999809E+01 0.  1.
       -4    1    3    3    0  502 -0.27327290089E+03  0.18094860479E+03  0.46206622698E+03  0.56650444567E+03  0.12699999809E+01 0. -1.
</event>
<event>
 5   0  0.1285639E-04  0.1696396E+04  0.7818609E-02  0.8763422E-01
        2   -1    0    0  501    0  0.00000000000E+00  0.00000000000E+00  0.86597875482E+03  0.86597875482E+03  0.25500000920E-02 0.  1.
       -2   -1    0    0    0  501  0.00000000000E+00  0.00000000000E+00 -0.83078260981E+03  0.83078260982E+03  0.25500000920E-02 0. -1.
    10030    2    1    2    0    0  0.00000000000E+00  0.00000000000E+00  0.35196145005E+02  0.16967613646E+04  0.16963962862E+04 0.  0.
        4    1    3    3  502    0  0.24930446044E+03 -0.78401450328E+03 -0.18886103353E+03  0.84409807382E+03  0.12699999809E+01 0. -1.
       -4    1    3    3    0  502 -0.24930446044E+03  0.78401450328E+03  0.22405717854E+03  0.85266329081E+03  0.12699999809E+01 0.  1.
</event>
<event>
 5   0  0.4720875E-05  0.1686612E+04  0.7818609E-02  0.8769037E-01
       -4   -1    0    0    0  501  0.00000000000E+00  0.00000000000E+00  0.97165861025E+03  0.97165944023E+03  0.12699999809E+01 0.  1.
        4   -1    0    0  501    0  0.00000000000E+00  0.00000000000E+00 -0.73190626918E+03  0.73190737102E+03  0.12699999809E+01 0. -1.
    10030    2    1    2    0    0  0.00000000000E+00  0.00000000000E+00  0.23975234108E+03  0.17035668113E+04  0.16866116018E+04 0.  0.
        2    1    3    3  502    0 -0.35888636545E+03  0.74000493547E+03 -0.68432856433E+02  0.82528163900E+03  0.25500000920E-02 0. -1.
       -2    1    3    3    0  502  0.35888636545E+03 -0.74000493547E+03  0.30818519751E+03  0.87828517225E+03  0.25500000920E-02 0.  1.
</event>
<event>
 5   0  0.1393870E-04  0.1707761E+04  0.7818609E-02  0.8756950E-01
       -2   -1    0    0    0  501  0.00000000000E+00  0.00000000000E+00  0.57975617999E+03  0.57975617999E+03  0.25500000920E-02 0.  1.
        2   -1    0    0  501    0  0.00000000000E+00  0.00000000000E+00 -0.12576181622E+04  0.12576181622E+04  0.25500000920E-02 0. -1.
    10030    2    1    2    0    0  0.00000000000E+00  0.00000000000E+00 -0.67786198225E+03  0.18373743422E+04  0.17077609922E+04 0.  0.
        3    1    3    3  502    0  0.11624302888E+03 -0.84274336818E+03 -0.25999312678E+03  0.88956464776E+03  0.10100000352E+00 0. -1.
       -3    1    3    3    0  502 -0.11624302888E+03  0.84274336818E+03 -0.41786885547E+03  0.94780969448E+03  0.10100000352E+00 0.  1.
</event>
<event>
 5   0  0.1285639E-04  0.1699423E+04  0.7818609E-02  0.8761694E-01
        2   -1    0    0  501    0  0.00000000000E+00  0.00000000000E+00  0.98672985944E+03  0.98672985944E+03  0.25500000920E-02 0.  1.
       -2   -1    0    0    0  501  0.00000000000E+00  0.00000000000E+00 -0.73171951987E+03  0.73171951988E+03  0.25500000920E-02 0. -1.
    10030    2    1    2    0    0  0.00000000000E+00  0.00000000000E+00  0.25501033957E+03  0.17184493793E+04  0.16994228420E+04 0.  0.
        4    1    3    3  502    0 -0.66250836769E+03  0.50237006871E+03  0.30472388466E+03  0.88552316851E+03  0.12699999809E+01 0. -1.
       -4    1    3    3    0  502  0.66250836769E+03 -0.50237006871E+03 -0.49713545093E+02  0.83292621081E+03  0.12699999809E+01 0.  1.
</event>
<event>
 5   0  0.6834837E-05  0.1689294E+04  0.7818609E-02  0.8767494E-01
        1   -1    0    0  501    0  0.00000000000E+00  0.00000000000E+00  0.16617509557E+04  0.16617509557E+04  0.50400001928E-02 0.  1.
       -1   -1    0    0    0  501  0.00000000000E+00  0.00000000000E+00 -0.42932332598E+03  0.42932332601E+03  0.50400001928E-02 0. -1.
    10030    2    1    2    0    0  0.00000000000E+00  0.00000000000E+00  0.12324276298E+04  0.20910742818E+04  0.16892938730E+04 0.  0.
        5    1    3    3  502    0 -0.12808071935E+03 -0.51384588446E+03 -0.19828450791E+03  0.56549190951E+03  0.46999998093E+01 0. -1.
       -5    1    3    3    0  502  0.12808071935E+03  0.51384588446E+03  0.14307121377E+04  0.15255823722E+04  0.46999998093E+01 0.  1.
</event>
<event>
 5   0  0.6539134E-05  0.1693345E+04  0.7818609E-02  0.8765169E-01
       -1   -1    0    0    0  501  0.00000000000E+00  0.00000000000E+00  0.11824816094E+04  0.11824816094E+04  0.50400001928E-02 0.  1.
        1   -1    0    0  501    0  0.00000000000E+00  0.00000000000E+00 -0.60622894619E+03  0.60622894621E+03  0.50400001928E-02 0. -1.
    10030    2    1    2    0    0  0.00000000000E+00  0.00000000000E+00  0.57625266324E+03  0.17887105557E+04  0.16933453044E+04 0.  0.
        2    1    3    3  502    0 -0.36651631319E+01 -0.14901111343E+03 -0.59226031472E+03  0.61072909358E+03  0.25500000920E-02 0. -1.
       -2    1    3    3    0  502  0.36651631319E+01  0.14901111343E+03  0.11685129780E+04  0.11779814621E+04  0.25500000920E-02 0.  1.
</event>
<event>
 5   0  0.1285639E-04  0.1706877E+04  0.7818609E-02  0.8757452E-01
        2   -1    0    0  501    0  0.00000000000E+00  0.00000000000E+00  0.15247935730E+04  0.15247935730E+04  0.25500000920E-02 0. -1.
       -2   -1    0    0    0  501  0.00000000000E+00  0.00000000000E+00 -0.47767601078E+03  0.47767601078E+03  0.25500000920E-02 0.  1.
    10030    2    1    2    0    0  0.00000000000E+00  0.00000000000E+00  0.10471175622E+04  0.20024695838E+04  0.17068770445E+04 0.  0.
        4    1    3    3  502    0 -0.74096223299E+02 -0.28632656482E+03 -0.41563003555E+03  0.51012066355E+03  0.12699999809E+01 0.  1.
       -4    1    3    3    0  502  0.74096223299E+02  0.28632656482E+03  0.14627475978E+04  0.14923489203E+04  0.12699999809E+01 0. -1.
</event>
<event>
 5   0  0.1393870E-04  0.1703249E+04  0.7818609E-02  0.8759513E-01
        2   -1    0    0  501    0  0.00000000000E+00  0.00000000000E+00  0.15211917310E+04  0.15211917310E+04  0.25500000920E-02 0.  1.
       -2   -1    0    0    0  501  0.00000000000E+00  0.00000000000E+00 -0.47677381053E+03  0.47677381054E+03  0.25500000920E-02 0. -1.
    10030    2    1    2    0    0  0.00000000000E+00  0.00000000000E+00  0.10444179205E+04  0.19979655416E+04  0.17032491047E+04 0.  0.
        3    1    3    3  502    0 -0.23913856375E+03 -0.31103591717E+03  0.14088641761E+04  0.14624735455E+04  0.10100000352E+00 0.  1.
       -3    1    3    3    0  502  0.23913856375E+03  0.31103591717E+03 -0.36444625559E+03  0.53549199607E+03  0.10100000352E+00 0. -1.
</event>
<event>
 5   0  0.4720875E-05  0.1733014E+04  0.7818609E-02  0.8742756E-01
       -3   -1    0    0    0  501  0.00000000000E+00  0.00000000000E+00  0.59294467888E+03  0.59294468748E+03  0.10100000352E+00 0. -1.
        3   -1    0    0  501    0  0.00000000000E+00  0.00000000000E+00 -0.12662808713E+04  0.12662808754E+04  0.10100000352E+00 0.  1.
    10030    2    1    2    0    0  0.00000000000E+00  0.00000000000E+00 -0.67333619246E+03  0.18592255629E+04  0.17330141562E+04 0.  0.
        1    1    3    3  502    0 -0.28005592703E+03  0.63970166318E+03  0.21370921059E+03  0.73028841347E+03  0.50400001928E-02 0. -1.
       -1    1    3    3    0  502  0.28005592703E+03 -0.63970166318E+03 -0.88704540306E+03  0.11289371494E+04  0.50400001928E-02 0.  1.
</event>
<event>
 5   0  0.1269175E-04  0.1719412E+04  0.7818609E-02  0.8750370E-01
        2   -1    0    0  501    0  0.00000000000E+00  0.00000000000E+00  0.11369157734E+04  0.11369157734E+04  0.25500000920E-02 0. -1.
       -2   -1    0    0    0  501  0.00000000000E+00  0.00000000000E+00 -0.65008719023E+03  0.65008719024E+03  0.25500000920E-02 0.  1.
    10030    2    1    2    0    0  0.00000000000E+00  0.00000000000E+00  0.48682858320E+03  0.17870029637E+04  0.17194119701E+04 0.  0.
        2    1    3    3  502    0  0.65645737799E+03  0.17417135469E+03 -0.30439447792E+03  0.74426335938E+03  0.25500000920E-02 0.  1.
       -2    1    3    3    0  502 -0.65645737799E+03 -0.17417135469E+03  0.79122306113E+03  0.10427396043E+04  0.25500000920E-02 0. -1.
</event>
<event>
 5   0  0.1285639E-04  0.1702508E+04  0.7818609E-02  0.8759935E-01
        2   -1    0    0  501    0  0.00000000000E+00  0.00000000000E+00  0.91629207658E+03  0.91629207658E+03  0.25500000920E-02 0. -1.
       -2   -1    0    0    0  501  0.00000000000E+00  0.00000000000E+00 -0.79083263167E+03  0.79083263168E+03  0.25500000920E-02 0.  1.
    10030    2    1    2    0    0  0.00000000000E+00  0.00000000000E+00  0.12545944491E+03  0.17071247083E+04  0.17025083545E+04 0.  0.
        4    1    3    3  502    0  0.23122391530E+03  0.57885300996E+03 -0.51858076253E+03  0.81084087607E+03  0.12699999809E+01 0.  1.
       -4    1    3    3    0  502 -0.23122391530E+03 -0.57885300996E+03  0.64404020744E+03  0.89628383219E+03  0.12699999809E+01 0. -1.
</event>
<event>
 5   0  0.6601906E-05  0.1702181E+04  0.7818609E-02  0.8760121E-01
        1   -1    0    0  501    0  0.00000000000E+00  0.00000000000E+00  0.14550958892E+04  0.14550958892E+04  0.50400001928E-02 0.  1.
       -1   -1    0    0    0  501  0.00000000000E+00  0.00000000000E+00 -0.49780566771E+03  0.49780566774E+03  0.50400001928E-02 0. -1.
    10030    2    1    2    0    0  0.00000000000E+00  0.00000000000E+00  0.95729022144E+03  0.19529015569E+04  0.17021809313E+04 0.  0.
        1    1    3    3  502    0 -0.66210717615E+02 -0.71926091212E+03 -0.37808969592E+02  0.72329083849E+03  0.50400001928E-02 0. -1.
       -1    1    3    3    0  502  0.66210717615E+02  0.71926091212E+03  0.99509919103E+03  0.12296107184E+04  0.50400001928E-02 0.  1.
</event>
<event>
 5   0  0.1269175E-04  0.1699583E+04  0.7818609E-02  0.8761602E-01
        2   -1    0    0  501    0  0.00000000000E+00  0.00000000000E+00  0.15277279940E+04  0.15277279940E+04  0.25500000920E-02 0.  1.
       -2   -1    0    0    0  501  0.00000000000E+00  0.00000000000E+00 -0.47269263629E+03  0.47269263630E+03  0.25500000920E-02 0. -1.
    10030    2    1    2    0    0  0.00000000000E+00  0.00000000000E+00  0.10550353577E+04  0.20004206303E+04  0.16995832113E+04 0.  0.
        2    1    3    3  502    0  0.66974775402E+03  0.49344551663E+03  0.73170454611E+03  0.11078998487E+04  0.25500000920E-02 0. -1.
       -2    1    3    3    0  502 -0.66974775402E+03 -0.49344551663E+03  0.32333081159E+03  0.89252078162E+03  0.25500000920E-02 0.  1.
</event>
<event>
 5   0  0.6834837E-05  0.1704486E+04  0.7818609E-02  0.8758810E-01
        1   -1    0    0  501    0  0.00000000000E+00  0.00000000000E+00  0.73306715655E+03  0.73306715657E+03  0.50400001928E-02 0.  1.
       -1   -1    0    0    0  501  0.00000000000E+00  0.00000000000E+00 -0.99079298757E+03  0.99079298758E+03  0.50400001928E-02 0. -1.
    10030    2    1    2    0    0  0.00000000000E+00  0.00000000000E+00 -0.25772583102E+03  0.17238601442E+04  0.17044856094E+04 0.  0.
        5    1    3    3  502    0  0.31478328806E+03 -0.15365332551E+03 -0.91460955140E+03  0.97940317765E+03  0.46999998093E+01 0. -1.
       -5    1    3    3    0  502 -0.31478328806E+03  0.15365332551E+03  0.65688372038E+03  0.74445696650E+03  0.46999998093E+01 0.  1.
</event>
<event>
 5   0  0.6615842E-05  0.1698237E+04  0.7818609E-02  0.8762371E-01
       -1   -1    0    0    0  501  0.00000000000E+00  0.00000000000E+00  0.10394176476E+04  0.10394176476E+04  0.50400001928E-02 0.  1.
        1   -1    0    0  501    0  0.00000000000E+00  0.00000000000E+00 -0.69365950845E+03  0.69365950846E+03  0.50400001928E-02 0. -1.
    10030    2    1    2    0    0  0.00000000000E+00  0.00000000000E+00  0.34575813914E+03  0.17330771561E+04  0.16982366555E+04 0.  0.
        3    1    3    3  502    0 -0.64585796836E+03 -0.42467488757E+03  0.53154445846E+03  0.93809423671E+03  0.10100000352E+00 0.  1.
       -3    1    3    3    0  502  0.64585796836E+03  0.42467488757E+03 -0.18578631932E+03  0.79498291936E+03  0.10100000352E+00 0. -1.
</event>
<event>
 5   0  0.1333546E-04  0.1704439E+04  0.7818609E-02  0.8758837E-01
        2   -1    0    0  501    0  0.00000000000E+00  0.00000000000E+00  0.10761060397E+04  0.10761060397E+04  0.25500000920E-02 0. -1.
       -2   -1    0    0    0  501  0.00000000000E+00  0.00000000000E+00 -0.67491308877E+03  0.67491308878E+03  0.25500000920E-02 0.  1.
    10030    2    1    2    0    0  0.00000000000E+00  0.00000000000E+00  0.40119295096E+03  0.17510191285E+04  0.17044389706E+04 0.  0.
        5    1    3    3  502    0 -0.78942846786E+03 -0.12404561450E+03 -0.10358885016E+03  0.80581471830E+03  0.46999998093E+01 0. -1.
       -5    1    3    3    0  502  0.78942846786E+03  0.12404561450E+03  0.50478180113E+03  0.94520441022E+03  0.46999998093E+01 0.  1.
</event>
<event>
 5   0  0.6834837E-05  0.1699622E+04  0.7818609E-02  0.8761580E-01
       -1   -1    0    0    0  501  0.00000000000E+00  0.00000000000E+00  0.81514682213E+03  0.81514682215E+03  0.50400001928E-02 0. -1.
        1   -1    0    0  501    0  0.00000000000E+00  0.00000000000E+00 -0.88594956076E+03  0.88594956077E+03  0.50400001928E-02 0.  1.
    10030    2    1    2    0    0  0.00000000000E+00  0.00000000000E+00 -0.70802738625E+02  0.17010963829E+04  0.16996222746E+04 0.  0.
        5    1    3    3  502    0 -0.47499138507E+03  0.45011392893E+03  0.50722889914E+03  0.82796292854E+03  0.46999998093E+01 0. -1.
       -5    1    3    3    0  502  0.47499138507E+03 -0.45011392893E+03 -0.57803163776E+03  0.87313345439E+03  0.46999998093E+01 0.  1.
</event>
<event>
 5   0  0.1393870E-04  0.1698188E+04  0.7818609E-02  0.8762399E-01
        2   -1    0    0  501    0  0.00000000000E+00  0.00000000000E+00  0.11572449309E+04  0.11572449309E+04  0.25500000920E-02 0.  1.
       -2   -1    0    0    0  501  0.00000000000E+00  0.00000000000E+00 -0.62299730094E+03  0.62299730095E+03  0.25500000920E-02 0. -1.
    10030    2    1    2    0    0  0.00000000000E+00  0.00000000000E+00  0.53424762999E+03  0.17802422319E+04  0.16981878206E+04 0.  0.
        3    1    3    3  502    0  0.39457621044E+03  0.54535248225E+03 -0.27543635914E+03  0.72729974143E+03  0.10100000352E+00 0. -1.
       -3    1    3    3    0  502 -0.39457621044E+03 -0.54535248225E+03  0.80968398913E+03  0.10529424905E+04  0.10100000352E+00 0.  1.
</event>
<event>
 5   0  0.6601906E-05  0.1700020E+04  0.7818609E-02  0.8761353E-01
       -1   -1    0    0    0  501  0.00000000000E+00  0.00000000000E+00  0.46912627656E+03  0.46912627659E+03  0.50400001928E-02 0. -1.
        1   -1    0    0  501    0  0.00000000000E+00  0.00000000000E+00 -0.15401324137E+04  0.15401324137E+04  0.50400001928E-02 0.  1.
    10030    2    1    2    0    0  0.00000000000E+00  0.00000000000E+00 -0.10710061371E+04  0.20092586903E+04  0.17000195113E+04 0.  0.
        1    1    3    3  502    0  0.52227893992E+03 -0.66610227363E+03 -0.62742638890E+03  0.10536277348E+04  0.50400001928E-02 0. -1.
       -1    1    3    3    0  502 -0.52227893992E+03  0.66610227363E+03 -0.44357974821E+03  0.95563095548E+03  0.50400001928E-02 0.  1.
</event>
<event>
 5   0  0.6834837E-05  0.1702657E+04  0.7818609E-02  0.8759850E-01
       -1   -1    0    0    0  501  0.00000000000E+00  0.00000000000E+00  0.51503040272E+03  0.51503040274E+03  0.50400001928E-02 0. -1.
        1   -1    0    0  501    0  0.00000000000E+00  0.00000000000E+00 -0.14072182430E+04  0.14072182430E+04  0.50400001928E-02 0.  1.
    10030    2    1    2    0    0  0.00000000000E+00  0.00000000000E+00 -0.89218784029E+03  0.19222486458E+04  0.17026569572E+04 0.  0.
        5    1    3    3  502    0  0.72832434137E+03 -0.31897678512E+02 -0.94240983698E+03  0.11914831929E+04  0.46999998093E+01 0.  1.
       -5    1    3    3    0  502 -0.72832434137E+03  0.31897678512E+02  0.50221996691E+02  0.73076545285E+03  0.46999998093E+01 0. -1.
</event>
<event>
 5   0  0.1393870E-04  0.1701090E+04  0.7818609E-02  0.8760743E-01
       -2   -1    0    0    0  501  0.00000000000E+00  0.00000000000E+00  0.44027035400E+03  0.44027035401E+03  0.25500000920E-02 0. -1.
        2   -1    0    0  501    0  0.00000000000E+00  0.00000000000E+00 -0.16431427811E+04  0.16431427811E+04  0.25500000920E-02 0.  1.
    10030    2    1    2    0    0  0.00000000000E+00  0.00000000000E+00 -0.12028724271E+04  0.20834131351E+04  0.17010903020E+04 0.  0.
        3    1    3    3  502    0 -0.56681289116E+03 -0.20252583058E+01  0.17523990874E+03  0.59328744388E+03  0.10100000352E+00 0. -1.
       -3    1    3    3    0  502  0.56681289116E+03  0.20252583058E+01 -0.13781123359E+04  0.14901256912E+04  0.10100000352E+00 0.  1.
</event>
<event>
 5   0  0.1333546E-04  0.1697513E+04  0.7818609E-02  0.8762784E-01
        2   -1    0    0  501    0  0.00000000000E+00  0.00000000000E+00  0.16619619968E+04  0.16619619968E+04  0.25500000920E-02 0. -1.
       -2   -1    0    0    0  501  0.00000000000E+00  0.00000000000E+00 -0.43345592923E+03  0.43345592924E+03  0.25500000920E-02 0.  1.
    10030    2    1    2    0    0  0.00000000000E+00  0.00000000000E+00  0.12285060675E+04  0.20954179260E+04  0.16975126293E+04 0.  0.
        5    1    3    3  502    0 -0.15287285237E+03 -0.12731235047E+03  0.16327580110E+04  0.16448402220E+04  0.46999998093E+01 0. -1.
       -5    1    3    3    0  502  0.15287285237E+03  0.12731235047E+03 -0.40425194343E+03  0.45057770399E+03  0.46999998093E+01 0.  1.
</event>
<event>
 5   0  0.1333546E-04  0.1698052E+04  0.7818609E-02  0.8762476E-01
        2   -1    0    0  501    0  0.00000000000E+00  0.00000000000E+00  0.26381950289E+04  0.26381950289E+04  0.25500000920E-02 0. -1.
       -2   -1    0    0    0  501  0.00000000000E+00  0.00000000000E+00 -0.27323416485E+03  0.27323416486E+03  0.25500000920E-02 0.  1.
    10030    2    1    2    0    0  0.00000000000E+00  0.00000000000E+00  0.23649608640E+04  0.29114291937E+04  0.16980518431E+04 0.  0.
        5    1    3    3  502    0  0.54799812216E+03  0.31557978812E+03  0.21116407411E+03  0.66671200736E+03  0.46999998093E+01 0.  1.
       -5    1    3    3    0  502 -0.54799812216E+03 -0.31557978812E+03  0.21537967899E+04  0.22447171864E+04  0.46999998093E+01 0. -1.
</event>
<event>
 5   0  0.6564887E-05  0.1702184E+04  0.7818609E-02  0.8760120E-01
        1   -1    0    0  501    0  0.00000000000E+00  0.00000000000E+00  0.14634359370E+04  0.14634359370E+04  0.50400001928E-02 0. -1.
       -1   -1    0    0    0  501  0.00000000000E+00  0.00000000000E+00 -0.49497068549E+03  0.49497068552E+03  0.50400001928E-02 0.  1.
    10030    2    1    2    0    0  0.00000000000E+00  0.00000000000E+00  0.96846525149E+03  0.19584066225E+04  0.17021843483E+04 0.  0.
        4    1    3    3  502    0  0.30381341955E+03 -0.74198725334E+02 -0.42646358677E+03  0.52884860639E+03  0.12699999809E+01 0.  1.
       -4    1    3    3    0  502 -0.30381341955E+03  0.74198725334E+02  0.13949288383E+04  0.14295580161E+04  0.12699999809E+01 0. -1.
</event>
<event>
 5   0  0.4720875E-05  0.1697828E+04  0.7818609E-02  0.8762604E-01
       -3   -1    0    0    0  501  0.00000000000E+00  0.00000000000E+00  0.80500352261E+03  0.80500352894E+03  0.10100000352E+00 0.  1.
        3   -1    0    0  501    0  0.00000000000E+00  0.00000000000E+00 -0.89521912666E+03  0.89521913236E+03  0.10100000352E+00 0. -1.
    10030    2    1    2    0    0  0.00000000000E+00  0.00000000000E+00 -0.90215604056E+02  0.17002226613E+04  0.16978275068E+04 0.  0.
        4    1    3    3  502    0  0.36750009428E+03 -0.19587085475E+03 -0.78590217491E+03  0.88941865983E+03  0.12699999809E+01 0. -1.
       -4    1    3    3    0  502 -0.36750009428E+03  0.19587085475E+03  0.69568657085E+03  0.81080400147E+03  0.12699999809E+01 0.  1.
</event>
<event>
 5   0  0.6564887E-05  0.1702073E+04  0.7818609E-02  0.8760183E-01
        1   -1    0    0  501    0  0.00000000000E+00  0.00000000000E+00  0.10446101527E+04  0.10446101527E+04  0.50400001928E-02 0. -1.
       -1   -1    0    0    0  501  0.00000000000E+00  0.00000000000E+00 -0.69333305328E+03  0.69333305330E+03  0.50400001928E-02 0.  1.
    10030    2    1    2    0    0  0.00000000000E+00  0.00000000000E+00  0.35127709937E+03  0.17379432060E+04  0.17020725562E+04 0.  0.
        4    1    3    3  502    0 -0.22358514214E+03 -0.73791348337E+03 -0.19216739151E+03  0.79462981569E+03  0.12699999809E+01 0.  1.
       -4    1    3    3    0  502  0.22358514214E+03  0.73791348337E+03  0.54344449088E+03  0.94331339029E+03  0.12699999809E+01 0. -1.
</event>
<event>
 5   0  0.6615842E-05  0.1702955E+04  0.7818609E-02  0.8759681E-01
       -1   -1    0    0    0  501  0.00000000000E+00  0.00000000000E+00  0.57322428699E+03  0.57322428702E+03  0.50400001928E-02 0.  1.
        1   -1    0    0  501    0  0.00000000000E+00  0.00000000000E+00 -0.12647991662E+04  0.12647991662E+04  0.50400001928E-02 0. -1.
    10030    2    1    2    0    0  0.00000000000E+00  0.00000000000E+00 -0.69157487921E+03  0.18380234532E+04  0.17029546092E+04 0.  0.
        3    1    3    3  502    0  0.58481999436E+03  0.13330415012E+03  0.30648751493E+03  0.67358669023E+03  0.10100000352E+00 0.  1.
       -3    1    3    3    0  502 -0.58481999436E+03 -0.13330415012E+03 -0.99806239414E+03  0.11644367630E+04  0.10100000352E+00 0. -1.
</event>
<event>
 5   0  0.6564887E-05  0.1702157E+04  0.7818609E-02  0.8760135E-01
        1   -1    0    0  501    0  0.00000000000E+00  0.00000000000E+00  0.61758995790E+03  0.61758995792E+03  0.50400001928E-02 0. -1.
       -1   -1    0    0    0  501  0.00000000000E+00  0.00000000000E+00 -0.11728409576E+04  0.11728409576E+04  0.50400001928E-02 0.  1.
    10030    2    1    2    0    0  0.00000000000E+00  0.00000000000E+00 -0.55525099968E+03  0.17904309155E+04  0.17021572168E+04 0.  0.
        4    1    3    3  502    0  0.51824521339E+03 -0.47293234774E+03  0.22911566458E+03  0.73806416211E+03  0.12699999809E+01 0. -1.
       -4    1    3    3    0  502 -0.51824521339E+03  0.47293234774E+03 -0.78436666426E+03  0.10523667534E+04  0.12699999809E+01 0.  1.
</event>
<event>
 5   0  0.1393870E-04  0.1708105E+04  0.7818609E-02  0.8756755E-01
       -2   -1    0    0    0  501  0.00000000000E+00  0.00000000000E+00  0.90073353581E+03  0.90073353581E+03  0.25500000920E-02 0. -1.
        2   -1    0    0  501    0  0.00000000000E+00  0.00000000000E+00 -0.80979073404E+03  0.80979073404E+03  0.25500000920E-02 0.  1.
    10030    2    1    2    0    0  0.00000000000E+00  0.00000000000E+00  0.90942801767E+02  0.17105242699E+04  0.17081049981E+04 0.  0.
        3    1    3    3  502    0  0.82129824120E+03 -0.80427101581E+02 -0.17485462767E+03  0.84354814367E+03  0.10100000352E+00 0.  1.
       -3    1    3    3    0  502 -0.82129824120E+03  0.80427101581E+02  0.26579742944E+03  0.86697612618E+03  0.10100000352E+00 0. -1.
</event>
<event>
 5   0  0.1333546E-04  0.1697520E+04  0.7818609E-02  0.8762780E-01
       -2   -1    0    0    0  501  0.00000000000E+00  0.00000000000E+00  0.30242286087E+03  0.30242286088E+03  0.25500000920E-02 0. -1.
        2   -1    0    0  501    0  0.00000000000E+00  0.00000000000E+00 -0.23820738432E+04  0.23820738432E+04  0.25500000920E-02 0.  1.
    10030    2    1    2    0    0  0.00000000000E+00  0.00000000000E+00 -0.20796509824E+04  0.26844967041E+04  0.16975200576E+04 0.  0.
        5    1    3    3  502    0 -0.25936770499E+03 -0.77016979581E+03 -0.65265660825E+03  0.10423127453E+04  0.46999998093E+01 0.  1.
       -5    1    3    3    0  502  0.25936770499E+03  0.77016979581E+03 -0.14269943741E+04  0.16421839588E+04  0.46999998093E+01 0. -1.
</event>
<event>
 5   0  0.1333546E-04  0.1697017E+04  0.7818609E-02  0.8763068E-01
       -2   -1    0    0    0  501  0.00000000000E+00  0.00000000000E+00  0.54727611553E+03  0.54727611553E+03  0.25500000920E-02 0.  1.
        2   -1    0    0  501    0  0.00000000000E+00  0.00000000000E+00 -0.13155454681E+04  0.13155454681E+04  0.25500000920E-02 0. -1.
    10030    2    1    2    0    0  0.00000000000E+00  0.00000000000E+00 -0.76826935253E+03  0.18628215836E+04  0.16970169281E+04 0.  0.
        5    1    3    3  502    0 -0.50283368604E+03  0.48795652127E+03  0.14116121607E+03  0.71476699797E+03  0.46999998093E+01 0.  1.
       -5    1    3    3    0  502  0.50283368604E+03 -0.48795652127E+03 -0.90943056860E+03  0.11480545856E+04  0.46999998093E+01 0. -1.
</event>
<event>
 5   0  0.6601906E-05  0.1698105E+04  0.7818609E-02  0.8762446E-01
        1   -1    0    0  501    0  0.00000000000E+00  0.00000000000E+00  0.10711102323E+04  0.10711102323E+04  0.50400001928E-02 0. -1.
       -1   -1    0    0    0  501  0.00000000000E+00  0.00000000000E+00 -0.67303103793E+03  0.67303103795E+03  0.50400001928E-02 0.  1.
    10030    2    1    2    0    0  0.00000000000E+00  0.00000000000E+00  0.39807919436E+03  0.17441412703E+04  0.16981053341E+04 0.  0.
        1    1    3    3  502    0  0.53987911407E+02 -0.78913818306E+03 -0.11793110465E+03  0.79972589805E+03  0.50400001928E-02 0.  1.
       -1    1    3    3    0  502 -0.53987911407E+02  0.78913818306E+03  0.51601029901E+03  0.94441537220E+03  0.50400001928E-02 0. -1.
</event>
<event>
 5   0  0.1255362E-04  0.1626738E+04  0.7818609E-02  0.8804288E-01
        2   -1    0    0  501    0  0.00000000000E+00  0.00000000000E+00  0.76554063151E+03  0.76554063151E+03  0.25500000920E-02 0. -1.
       -2   -1    0    0    0  501  0.00000000000E+00  0.00000000000E+00 -0.86418548283E+03  0.86418548283E+03  0.25500000920E-02 0.  1.
    10030    2    1    2    0    0  0.00000000000E+00  0.00000000000E+00 -0.98644851320E+02  0.16297261143E+04  0.16267379632E+04 0.  0.
        1    1    3    3  502    0  0.74916857936E+03 -0.26183889515E+03  0.12920685731E+03  0.80405695029E+03  0.50400001928E-02 0. -1.
       -1    1    3    3    0  502 -0.74916857936E+03  0.26183889515E+03 -0.22785170863E+03  0.82566916405E+03  0.50400001928E-02 0.  1.
</event>
<event>
 5   0  0.1255362E-04  0.1711586E+04  0.7818609E-02  0.8754784E-01
        2   -1    0    0  501    0  0.00000000000E+00  0.00000000000E+00  0.12779399301E+04  0.12779399301E+04  0.25500000920E-02 0.  1.
       -2   -1    0    0    0  501  0.00000000000E+00  0.00000000000E+00 -0.57309557401E+03  0.57309557401E+03  0.25500000920E-02 0. -1.
    10030    2    1    2    0    0  0.00000000000E+00  0.00000000000E+00  0.70484435613E+03  0.18510355041E+04  0.17115860689E+04 0.  0.
        1    1    3    3  502    0 -0.23235148733E+03  0.34411520259E+03  0.11617080635E+04  0.12336807168E+04  0.50400001928E-02 0.  1.
       -1    1    3    3    0  502  0.23235148733E+03 -0.34411520259E+03 -0.45686370734E+03  0.61735478732E+03  0.50400001928E-02 0. -1.
</event>
<event>
 5   0  0.6615842E-05  0.1707768E+04  0.7818609E-02  0.8756946E-01
       -1   -1    0    0    0  501  0.00000000000E+00  0.00000000000E+00  0.76989541835E+03  0.76989541837E+03  0.50400001928E-02 0.  1.
        1   -1    0    0  501    0  0.00000000000E+00  0.00000000000E+00 -0.94703520069E+03  0.94703520071E+03  0.50400001928E-02 0. -1.
    10030    2    1    2    0    0  0.00000000000E+00  0.00000000000E+00 -0.17713978234E+03  0.17169306191E+04  0.17077682068E+04 0.  0.
        3    1    3    3  502    0 -0.55636451581E+03  0.38146540057E+03 -0.61488667943E+03  0.91276665420E+03  0.10100000352E+00 0.  1.
       -3    1    3    3    0  502  0.55636451581E+03 -0.38146540057E+03  0.43774689709E+03  0.80416396487E+03  0.10100000352E+00 0. -1.
</event>
<event>
 5   0  0.1285639E-04  0.1700548E+04  0.7818609E-02  0.8761052E-01
       -2   -1    0    0    0  501  0.00000000000E+00  0.00000000000E+00  0.44338595872E+03  0.44338595873E+03  0.25500000920E-02 0.  1.
        2   -1    0    0  501    0  0.00000000000E+00  0.00000000000E+00 -0.16305558392E+04  0.16305558392E+04  0.25500000920E-02 0. -1.
    10030    2    1    2    0    0  0.00000000000E+00  0.00000000000E+00 -0.11871698804E+04  0.20739417979E+04  0.17005476341E+04 0.  0.
        4    1    3    3  502    0 -0.34080965296E+03 -0.76643700683E+03 -0.42377481411E+03  0.93976784951E+03  0.12699999809E+01 0.  1.
       -4    1    3    3    0  502  0.34080965296E+03  0.76643700683E+03 -0.76339506633E+03  0.11341739484E+04  0.12699999809E+01 0. -1.
</event>
<event>
 5   0  0.6539134E-05  0.1688841E+04  0.7818609E-02  0.8767754E-01
        1   -1    0    0  501    0  0.00000000000E+00  0.00000000000E+00  0.17182654433E+04  0.17182654433E+04  0.50400001928E-02 0. -1.
       -1   -1    0    0    0  501  0.00000000000E+00  0.00000000000E+00 -0.41498016077E+03  0.41498016080E+03  0.50400001928E-02 0.  1.
    10030    2    1    2    0    0  0.00000000000E+00  0.00000000000E+00  0.13032852825E+04  0.21332456041E+04  0.16888411055E+04 0.  0.
        2    1    3    3  502    0  0.41702853530E+03  0.58309553937E+03  0.87974437818E+02  0.72225529351E+03  0.25500000920E-02 0.  1.
       -2    1    3    3    0  502 -0.41702853530E+03 -0.58309553937E+03  0.12153108447E+04  0.14109903106E+04  0.25500000920E-02 0. -1.
</event>
<event>
 5   0  0.1269175E-04  0.1702759E+04  0.7818609E-02  0.8759792E-01
        2   -1    0    0  501    0  0.00000000000E+00  0.00000000000E+00  0.93181539257E+03  0.93181539258E+03  0.25500000920E-02 0. -1.
       -2   -1    0    0    0  501  0.00000000000E+00  0.00000000000E+00 -0.77788720580E+03  0.77788720580E+03  0.25500000920E-02 0.  1.
    10030    2    1    2    0    0  0.00000000000E+00  0.00000000000E+00  0.15392818678E+03  0.17097025984E+04  0.17027592573E+04 0.  0.
        2    1    3    3  502    0 -0.16299354891E+03  0.81745646547E+03 -0.97078525393E+02  0.83918186945E+03  0.25500000920E-02 0.  1.
       -2    1    3    3    0  502  0.16299354891E+03 -0.81745646547E+03  0.25100671217E+03  0.87052072892E+03  0.25500000920E-02 0. -1.
</event>
<event>
 5   0  0.6601906E-05  0.1693555E+04  0.7818609E-02  0.8765049E-01
       -1   -1    0    0    0  501  0.00000000000E+00  0.00000000000E+00  0.43461638404E+03  0.43461638407E+03  0.50400001928E-02 0. -1.
        1   -1    0    0  501    0  0.00000000000E+00  0.00000000000E+00 -0.16498054113E+04  0.16498054113E+04  0.50400001928E-02 0.  1.
    10030    2    1    2    0    0  0.00000000000E+00  0.00000000000E+00 -0.12151890272E+04  0.20844217953E+04  0.16935553870E+04 0.  0.
        1    1    3    3  502    0 -0.18874568841E+03 -0.58597998487E+03 -0.13231890660E+04  0.14593926072E+04  0.50400001928E-02 0.  1.
       -1    1    3    3    0  502  0.18874568841E+03  0.58597998487E+03  0.10800003881E+03  0.62502918810E+03  0.50400001928E-02 0. -1.
</event>
<event>
 5   0  0.1269175E-04  0.1692028E+04  0.7818609E-02  0.8765924E-01
        2   -1    0    0  501    0  0.00000000000E+00  0.00000000000E+00  0.13813124598E+04  0.13813124598E+04  0.25500000920E-02 0. -1.
       -2   -1    0    0    0  501  0.00000000000E+00  0.00000000000E+00 -0.51815896196E+03  0.51815896196E+03  0.25500000920E-02 0.  1.
    10030    2    1    2    0    0  0.00000000000E+00  0.00000000000E+00  0.86315349783E+03  0.18994714218E+04  0.16920276952E+04 0.  0.
        2    1    3    3  502    0 -0.63946119063E+03 -0.63603986245E+02  0.10492962195E+04  0.12304383925E+04  0.25500000920E-02 0. -1.
       -2    1    3    3    0  502  0.63946119063E+03  0.63603986245E+02 -0.18614272170E+03  0.66903302926E+03  0.25500000920E-02 0.  1.
</event>
<event>
 5   0  0.1333546E-04  0.1702870E+04  0.7818609E-02  0.8759729E-01
       -2   -1    0    0    0  501  0.00000000000E+00  0.00000000000E+00  0.66561839658E+03  0.66561839658E+03  0.25500000920E-02 0.  1.
        2   -1    0    0  501    0  0.00000000000E+00  0.00000000000E+00 -0.10891242587E+04  0.10891242587E+04  0.25500000920E-02 0. -1.
    10030    2    1    2    0    0  0.00000000000E+00  0.00000000000E+00 -0.42350586213E+03  0.17547426553E+04  0.17028695109E+04 0.  0.
        5    1    3    3  502    0  0.47318087838E+03  0.15922234042E+03 -0.92244856252E+03  0.10488972008E+04  0.46999998093E+01 0. -1.
       -5    1    3    3    0  502 -0.47318087838E+03 -0.15922234042E+03  0.49894270039E+03  0.70584545449E+03  0.46999998093E+01 0.  1.
</event>
<event>
 5   0  0.1333546E-04  0.1639219E+04  0.7818609E-02  0.8796810E-01
        2   -1    0    0  501    0  0.00000000000E+00  0.00000000000E+00  0.97508598120E+03  0.97508598121E+03  0.25500000920E-02 0. -1.
       -2   -1    0    0    0  501  0.00000000000E+00  0.00000000000E+00 -0.68892398184E+03  0.68892398185E+03  0.25500000920E-02 0.  1.
    10030    2    1    2    0    0  0.00000000000E+00  0.00000000000E+00  0.28616199936E+03  0.16640099631E+04  0.16392194689E+04 0.  0.
        5    1    3    3  502    0 -0.43310702920E+02  0.33718492941E+03  0.90012657525E+03  0.96219511279E+03  0.46999998093E+01 0. -1.
       -5    1    3    3    0  502  0.43310702920E+02 -0.33718492941E+03 -0.61396457589E+03  0.70181485027E+03  0.46999998093E+01 0.  1.
</event>
<event>
 5   0  0.4720875E-05  0.1702464E+04  0.7818609E-02  0.8759960E-01
        4   -1    0    0  501    0  0.00000000000E+00  0.00000000000E+00  0.53347493720E+03  0.53347644889E+03  0.12699999809E+01 0. -1.
       -4   -1    0    0    0  501  0.00000000000E+00  0.00000000000E+00 -0.13582527280E+04  0.13582533217E+04  0.12699999809E+01 0.  1.
    10030    2    1    2    0    0  0.00000000000E+00  0.00000000000E+00 -0.82477779080E+03  0.18917297706E+04  0.17024638383E+04 0.  0.
        4    1    3    3  502    0  0.19157388568E+03 -0.19483733503E+03  0.48341958940E+03  0.55530014687E+03  0.12699999809E+01 0. -1.
       -4    1    3    3    0  502 -0.19157388568E+03  0.19483733503E+03 -0.13081973802E+04  0.13364296238E+04  0.12699999809E+01 0.  1.
</event>
<event>
 5   0  0.6601906E-05  0.1694267E+04  0.7818609E-02  0.8764641E-01
       -1   -1    0    0    0  501  0.00000000000E+00  0.00000000000E+00  0.83872894167E+03  0.83872894169E+03  0.50400001928E-02 0.  1.
        1   -1    0    0  501    0  0.00000000000E+00  0.00000000000E+00 -0.85562256295E+03  0.85562256296E+03  0.50400001928E-02 0. -1.
    10030    2    1    2    0    0  0.00000000000E+00  0.00000000000E+00 -0.16893621278E+02  0.16943515047E+04  0.16942672832E+04 0.  0.
        1    1    3    3  502    0 -0.16606660190E+03  0.35798262277E+03 -0.75808778998E+03  0.85465008735E+03  0.50400001928E-02 0. -1.
       -1    1    3    3    0  502  0.16606660190E+03 -0.35798262277E+03  0.74119416870E+03  0.83970141730E+03  0.50400001928E-02 0.  1.
</event>
<event>
 5   0  0.6615842E-05  0.1701111E+04  0.7818609E-02  0.8760731E-01
       -1   -1    0    0    0  501  0.00000000000E+00  0.00000000000E+00  0.93933719755E+03  0.93933719757E+03  0.50400001928E-02 0.  1.
        1   -1    0    0  501    0  0.00000000000E+00  0.00000000000E+00 -0.77016489186E+03  0.77016489188E+03  0.50400001928E-02 0. -1.
    10030    2    1    2    0    0  0.00000000000E+00  0.00000000000E+00  0.16917230569E+03  0.17095020894E+04  0.17011108502E+04 0.  0.
        3    1    3    3  502    0  0.45425426769E+03  0.10870022003E+02 -0.63797340544E+03  0.78324655974E+03  0.10100000352E+00 0. -1.
       -3    1    3    3    0  502 -0.45425426769E+03 -0.10870022003E+02  0.80714571114E+03  0.92625552970E+03  0.10100000352E+00 0.  1.
</event>
<event>
 5   0  0.6615842E-05  0.1687187E+04  0.7818609E-02  0.8768706E-01
        1   -1    0    0  501    0  0.00000000000E+00  0.00000000000E+00  0.11660455845E+04  0.11660455845E+04  0.50400001928E-02 0.  1.
       -1   -1    0    0    0  501  0.00000000000E+00  0.00000000000E+00 -0.61031049075E+03  0.61031049077E+03  0.50400001928E-02 0. -1.
    10030    2    1    2    0    0  0.00000000000E+00  0.00000000000E+00  0.55573509371E+03  0.17763560752E+04  0.16871868337E+04 0.  0.
        3    1    3    3  502    0 -0.45538308246E+02  0.70327416020E+03  0.76603346322E+03  0.10409013204E+04  0.10100000352E+00 0.  1.
       -3    1    3    3    0  502  0.45538308246E+02 -0.70327416020E+03 -0.21029836951E+03  0.73545475479E+03  0.10100000352E+00 0. -1.
</event>
<event>
 5   0  0.1255362E-04  0.1696731E+04  0.7818609E-02  0.8763231E-01
       -2   -1    0    0    0  501  0.00000000000E+00  0.00000000000E+00  0.48948215110E+03  0.48948215111E+03  0.25500000920E-02 0.  1.
        2   -1    0    0  501    0  0.00000000000E+00  0.00000000000E+00 -0.14703779031E+04  0.14703779031E+04  0.25500000920E-02 0. -1.
    10030    2    1    2    0    0  0.00000000000E+00  0.00000000000E+00 -0.98089575201E+03  0.19598600542E+04  0.16967306668E+04 0.  0.
        1    1    3    3  502    0 -0.47492096507E+03 -0.61460511637E+03 -0.96305849978E+02  0.78266479984E+03  0.50400001928E-02 0. -1.
       -1    1    3    3    0  502  0.47492096507E+03  0.61460511637E+03 -0.88458990203E+03  0.11771952544E+04  0.50400001928E-02 0.  1.
</event>
<event>
 5   0  0.6834837E-05  0.1694815E+04  0.7818609E-02  0.8764327E-01
        1   -1    0    0  501    0  0.00000000000E+00  0.00000000000E+00  0.15632778182E+04  0.15632778182E+04  0.50400001928E-02 0.  1.
       -1   -1    0    0    0  501  0.00000000000E+00  0.00000000000E+00 -0.45935508510E+03  0.45935508513E+03  0.50400001928E-02 0. -1.
    10030    2    1    2    0    0  0.00000000000E+00  0.00000000000E+00  0.11039227331E+04  0.20226329034E+04  0.16948151702E+04 0.  0.
        5    1    3    3  502    0  0.45079788919E+03  0.50013163506E+03  0.11659975389E+04  0.13464481943E+04  0.46999998093E+01 0.  1.
       -5    1    3    3    0  502 -0.45079788919E+03 -0.50013163506E+03 -0.62074805731E+02  0.67618470907E+03  0.46999998093E+01 0. -1.
</event>
<event>
 5   0  0.1255362E-04  0.1693831E+04  0.7818609E-02  0.8764891E-01
        2   -1    0    0  501    0  0.00000000000E+00  0.00000000000E+00  0.13820914289E+04  0.13820914289E+04  0.25500000920E-02 0.  1.
       -2   -1    0    0    0  501  0.00000000000E+00  0.00000000000E+00 -0.51897132150E+03  0.51897132151E+03  0.25500000920E-02 0. -1.
    10030    2    1    2    0    0  0.00000000000E+00  0.00000000000E+00  0.86312010738E+03  0.19010627504E+04  0.16938309423E+04 0.  0.
        1    1    3    3  502    0 -0.46093126444E+03 -0.33315947675E+03  0.11358822669E+04  0.12703075973E+04  0.50400001928E-02 0.  1.
       -1    1    3    3    0  502  0.46093126444E+03  0.33315947675E+03 -0.27276215950E+03  0.63075515311E+03  0.50400001928E-02 0. -1.
</event>
<event>
 5   0  0.1393870E-04  0.1691776E+04  0.7818609E-02  0.8766069E-01
        2   -1    0    0  501    0  0.00000000000E+00  0.00000000000E+00  0.70041529065E+03  0.70041529066E+03  0.25500000920E-02 0. -1.
       -2   -1    0    0    0  501  0.00000000000E+00  0.00000000000E+00 -0.10215751054E+04  0.10215751054E+04  0.25500000920E-02 0.  1.
    10030    2    1    2    0    0  0.00000000000E+00  0.00000000000E+00 -0.32115981471E+03  0.17219903960E+04  0.16917763734E+04 0.  0.
        3    1    3    3  502    0  0.73885111191E+03  0.36183029560E+03  0.39668717524E+02  0.82364782871E+03  0.10100000352E+00 0. -1.
       -3    1    3    3    0  502 -0.73885111191E+03 -0.36183029560E+03 -0.36082853224E+03  0.89834256732E+03  0.10100000352E+00 0.  1.
</event>
<event>
 5   0  0.1269175E-04  0.1709781E+04  0.7818609E-02  0.8755806E-01
       -2   -1    0    0    0  501  0.00000000000E+00  0.00000000000E+00  0.47660000037E+03  0.47660000038E+03  0.25500000920E-02 0.  1.
        2   -1    0    0  501    0  0.00000000000E+00  0.00000000000E+00 -0.15334401847E+04  0.15334401847E+04  0.25500000920E-02 0. -1.
    10030    2    1    2    0    0  0.00000000000E+00  0.00000000000E+00 -0.10568401844E+04  0.20100401851E+04  0.17097807960E+04 0.  0.
        2    1    3    3  502    0  0.77059784615E+03  0.45570692432E+02 -0.96027159914E+03  0.12320792477E+04  0.25500000920E-02 0. -1.
       -2    1    3    3    0  502 -0.77059784615E+03 -0.45570692432E+02 -0.96568585234E+02  0.77796093742E+03  0.25500000920E-02 0.  1.
</event>
<event>
 5   0  0.6539134E-05  0.1578730E+04  0.7818609E-02  0.8833723E-01
        1   -1    0    0  501    0  0.00000000000E+00  0.00000000000E+00  0.11102657133E+04  0.11102657133E+04  0.50400001928E-02 0.  1.
       -1   -1    0    0    0  501  0.00000000000E+00  0.00000000000E+00 -0.56121429725E+03  0.56121429728E+03  0.50400001928E-02 0. -1.
    10030    2    1    2    0    0  0.00000000000E+00  0.00000000000E+00  0.54905141601E+03  0.16714800105E+04  0.15787298592E+04 0.  0.
        2    1    3    3  502    0 -0.38697863387E+03 -0.57862823362E+03 -0.11954249056E+03  0.70629562002E+03  0.25500000920E-02 0. -1.
       -2    1    3    3    0  502  0.38697863387E+03  0.57862823362E+03  0.66859390657E+03  0.96518439053E+03  0.25500000920E-02 0.  1.
</event>
<event>
 5   0  0.1333546E-04  0.1722219E+04  0.7818609E-02  0.8748793E-01
        2   -1    0    0  501    0  0.00000000000E+00  0.00000000000E+00  0.14030853855E+04  0.14030853855E+04  0.25500000920E-02 0. -1.
       -2   -1    0    0    0  501  0.00000000000E+00  0.00000000000E+00 -0.52848483727E+03  0.52848483728E+03  0.25500000920E-02 0.  1.
    10030    2    1    2    0    0  0.00000000000E+00  0.00000000000E+00  0.87460054822E+03  0.19315702228E+04  0.17222187453E+04 0.  0.
        5    1    3    3  502    0  0.35369435489E+03 -0.26395727699E+03 -0.39198191009E+03  0.59029234163E+03  0.46999998093E+01 0.  1.
       -5    1    3    3    0  502 -0.35369435489E+03  0.26395727699E+03  0.12665824583E+04  0.13412778811E+04  0.46999998093E+01 0. -1.
</event>
<event>
 5   0  0.4720875E-05  0.1694119E+04  0.7818609E-02  0.8764726E-01
        3   -1    0    0  501    0  0.00000000000E+00  0.00000000000E+00  0.58135946097E+03  0.58135946974E+03  0.10100000352E+00 0. -1.
       -3   -1    0    0    0  501  0.00000000000E+00  0.00000000000E+00 -0.12341928996E+04  0.12341929037E+04  0.10100000352E+00 0.  1.
    10030    2    1    2    0    0  0.00000000000E+00  0.00000000000E+00 -0.65283343860E+03  0.18155523734E+04  0.16941189221E+04 0.  0.
        5    1    3    3  502    0  0.74120838004E+03 -0.11206574715E+03 -0.74907035005E+03  0.10597533079E+04  0.46999998093E+01 0.  1.
       -5    1    3    3    0  502 -0.74120838004E+03  0.11206574715E+03  0.96236911454E+02  0.75579906552E+03  0.46999998093E+01 0. -1.
</event>
<event>
 5   0  0.1333546E-04  0.1759836E+04  0.7818609E-02  0.8727955E-01
       -2   -1    0    0    0  501  0.00000000000E+00  0.00000000000E+00  0.50287993723E+03  0.50287993723E+03  0.25500000920E-02 0. -1.
        2   -1    0    0  501    0  0.00000000000E+00  0.00000000000E+00 -0.15396427155E+04  0.15396427155E+04  0.25500000920E-02 0.  1.
    10030    2    1    2    0    0  0.00000000000E+00  0.00000000000E+00 -0.10367627782E+04  0.20425226527E+04  0.17598357106E+04 0.  0.
        5    1    3    3  502    0 -0.80285744818E+03 -0.50300612474E+00 -0.93629455416E+03  0.12333896048E+04  0.46999998093E+01 0.  1.
       -5    1    3    3    0  502  0.80285744818E+03  0.50300612474E+00 -0.10046822407E+03  0.80913304788E+03  0.46999998093E+01 0. -1.
</event>
<event>
 5   0  0.1255362E-04  0.1709134E+04  0.7818609E-02  0.8756172E-01
        2   -1    0    0  501    0  0.00000000000E+00  0.00000000000E+00  0.95952334248E+03  0.95952334249E+03  0.25500000920E-02 0.  1.
       -2   -1    0    0    0  501  0.00000000000E+00  0.00000000000E+00 -0.76109155490E+03  0.76109155490E+03  0.25500000920E-02 0. -1.
    10030    2    1    2    0    0  0.00000000000E+00  0.00000000000E+00  0.19843178758E+03  0.17206148974E+04  0.17091344157E+04 0.  0.
        1    1    3    3  502    0  0.39217906966E+03 -0.36070100194E+03 -0.57338528353E+03  0.78273898515E+03  0.50400001928E-02 0. -1.
       -1    1    3    3    0  502 -0.39217906966E+03  0.36070100194E+03  0.77181707111E+03  0.93787591224E+03  0.50400001928E-02 0.  1.
</event>
<event>
 5   0  0.1285639E-04  0.1699893E+04  0.7818609E-02  0.8761426E-01
        2   -1    0    0  501    0  0.00000000000E+00  0.00000000000E+00  0.16097361305E+04  0.16097361305E+04  0.25500000920E-02 0. -1.
       -2   -1    0    0    0  501  0.00000000000E+00  0.00000000000E+00 -0.44877463534E+03  0.44877463535E+03  0.25500000920E-02 0.  1.
    10030    2    1    2    0    0  0.00000000000E+00  0.00000000000E+00  0.11609614951E+04  0.20585107658E+04  0.16998926377E+04 0.  0.
        4    1    3    3  502    0 -0.49571606420E+03 -0.39456850418E+03 -0.10560172788E+03  0.64231772405E+03  0.12699999809E+01 0.  1.
       -4    1    3    3    0  502  0.49571606420E+03  0.39456850418E+03  0.12665632230E+04  0.14161930418E+04  0.12699999809E+01 0. -1.
</event>
<event>
 5   0  0.6539134E-05  0.1707656E+04  0.7818609E-02  0.8757010E-01
        1   -1    0    0  501    0  0.00000000000E+00  0.00000000000E+00  0.15031402095E+04  0.15031402095E+04  0.50400001928E-02 0.  1.
       -1   -1    0    0    0  501  0.00000000000E+00  0.00000000000E+00 -0.48499928786E+03  0.48499928788E+03  0.50400001928E-02 0. -1.
    10030    2    1    2    0    0  0.00000000000E+00  0.00000000000E+00  0.10181409216E+04  0.19881394974E+04  0.17076556224E+04 0.  0.
        2    1    3    3  502    0 -0.25175059373E+03  0.68725008207E+03  0.10209846778E+04  0.12562248004E+04  0.25500000920E-02 0.  1.
       -2    1    3    3    0  502  0.25175059373E+03 -0.68725008207E+03 -0.28437561727E+01  0.73191469701E+03  0.25500000920E-02 0. -1.
</event>
<event>
 5   0  0.6539134E-05  0.1700598E+04  0.7818609E-02  0.8761023E-01
        1   -1    0    0  501    0  0.00000000000E+00  0.00000000000E+00  0.95878498783E+03  0.95878498784E+03  0.50400001928E-02 0. -1.
       -1   -1    0    0    0  501  0.00000000000E+00  0.00000000000E+00 -0.75408816632E+03  0.75408816634E+03  0.50400001928E-02 0.  1.
    10030    2    1    2    0    0  0.00000000000E+00  0.00000000000E+00  0.20469682150E+03  0.17128731542E+04  0.17005980282E+04 0.  0.
        2    1    3    3  502    0  0.50558186940E+03 -0.71375716834E+02  0.78718333232E+03  0.93827774049E+03  0.25500000920E-02 0. -1.
       -2    1    3    3    0  502 -0.50558186940E+03  0.71375716834E+02 -0.58248651082E+03  0.77459541369E+03  0.25500000920E-02 0.  1.
</event>
<event>
 5   0  0.1333546E-04  0.1700388E+04  0.7818609E-02  0.8761143E-01
       -2   -1    0    0    0  501  0.00000000000E+00  0.00000000000E+00  0.77659133672E+03  0.77659133673E+03  0.25500000920E-02 0. -1.
        2   -1    0    0  501    0  0.00000000000E+00  0.00000000000E+00 -0.93077223207E+03  0.93077223208E+03  0.25500000920E-02 0.  1.
    10030    2    1    2    0    0  0.00000000000E+00  0.00000000000E+00 -0.15418089535E+03  0.17073635688E+04  0.17003877815E+04 0.  0.
        5    1    3    3  502    0  0.66317467784E+03  0.52637200911E+03 -0.15447422568E+03  0.86066980991E+03  0.46999998093E+01 0. -1.
       -5    1    3    3    0  502 -0.66317467784E+03 -0.52637200911E+03  0.29333033183E+00  0.84669375889E+03  0.46999998093E+01 0.  1.
</event>
<event>
 5   0  0.1393870E-04  0.1700374E+04  0.7818609E-02  0.8761151E-01
        2   -1    0    0  501    0  0.00000000000E+00  0.00000000000E+00  0.11285327298E+04  0.11285327298E+04  0.25500000920E-02 0. -1.
       -2   -1    0    0    0  501  0.00000000000E+00  0.00000000000E+00 -0.64049322526E+03  0.64049322527E+03  0.25500000920E-02 0.  1.
    10030    2    1    2    0    0  0.00000000000E+00  0.00000000000E+00  0.48803950455E+03  0.17690259551E+04  0.17003735683E+04 0.  0.
        3    1    3    3  502    0  0.59179435014E+03  0.83184644556E+02 -0.38510804165E+03  0.71094897981E+03  0.10100000352E+00 0.  1.
       -3    1    3    3    0  502 -0.59179435014E+03 -0.83184644556E+02  0.87314754620E+03  0.10580769753E+04  0.10100000352E+00 0. -1.
</event>
<event>
 5   0  0.6539134E-05  0.1699142E+04  0.7818609E-02  0.8761854E-01
        1   -1    0    0  501    0  0.00000000000E+00  0.00000000000E+00  0.11428620431E+04  0.11428620432E+04  0.50400001928E-02 0. -1.
       -1   -1    0    0    0  501  0.00000000000E+00  0.00000000000E+00 -0.63154658091E+03  0.63154658093E+03  0.50400001928E-02 0.  1.
    10030    2    1    2    0    0  0.00000000000E+00  0.00000000000E+00  0.51131546223E+03  0.17744086241E+04  0.16991416843E+04 0.  0.
        2    1    3    3  502    0 -0.48083397505E+03  0.27775718602E+03  0.92711737808E+03  0.10806928327E+04  0.25500000920E-02 0. -1.
       -2    1    3    3    0  502  0.48083397505E+03 -0.27775718602E+03 -0.41580191585E+03  0.69371579136E+03  0.25500000920E-02 0.  1.
</event>
<event>
 5   0  0.1285639E-04  0.1695923E+04  0.7818609E-02  0.8763693E-01
        2   -1    0    0  501    0  0.00000000000E+00  0.00000000000E+00  0.11193639250E+04  0.11193639250E+04  0.25500000920E-02 0. -1.
       -2   -1    0    0    0  501  0.00000000000E+00  0.00000000000E+00 -0.64236335846E+03  0.64236335846E+03  0.25500000920E-02 0.  1.
    10030    2    1    2    0    0  0.00000000000E+00  0.00000000000E+00  0.47700056652E+03  0.17617272834E+04  0.16959226046E+04 0.  0.
        4    1    3    3  502    0  0.13074209201E+03 -0.50057073855E+03 -0.45941073417E+03  0.69189912160E+03  0.12699999809E+01 0.  1.
       -4    1    3    3    0  502 -0.13074209201E+03  0.50057073855E+03  0.93641130069E+03  0.10698281618E+04  0.12699999809E+01 0. -1.
</event>
<event>
 5   0  0.6564887E-05  0.1693492E+04  0.7818609E-02  0.8765085E-01
       -1   -1    0    0    0  501  0.00000000000E+00  0.00000000000E+00  0.64843542142E+03  0.64843542144E+03  0.50400001928E-02 0.  1.
        1   -1    0    0  501    0  0.00000000000E+00  0.00000000000E+00 -0.11057054016E+04  0.11057054016E+04  0.50400001928E-02 0. -1.
    10030    2    1    2    0    0  0.00000000000E+00  0.00000000000E+00 -0.45726998018E+03  0.17541408231E+04  0.16934917161E+04 0.  0.
        4    1    3    3  502    0  0.84487885993E+03 -0.49787057055E+02 -0.20166610621E+03  0.87004015441E+03  0.12699999809E+01 0.  1.
       -4    1    3    3    0  502 -0.84487885993E+03  0.49787057055E+02 -0.25560387397E+03  0.88410066864E+03  0.12699999809E+01 0. -1.
</event>
<event>
 5   0  0.6615842E-05  0.1699260E+04  0.7818609E-02  0.8761787E-01
        1   -1    0    0  501    0  0.00000000000E+00  0.00000000000E+00  0.14214189268E+04  0.14214189268E+04  0.50400001928E-02 0.  1.
       -1   -1    0    0    0  501  0.00000000000E+00  0.00000000000E+00 -0.50785243276E+03  0.50785243279E+03  0.50400001928E-02 0. -1.
    10030    2    1    2    0    0  0.00000000000E+00  0.00000000000E+00  0.91356649404E+03  0.19292713596E+04  0.16992599095E+04 0.  0.
        3    1    3    3  502    0 -0.21250594534E+03  0.22970434652E+03 -0.44004188305E+03  0.53996271414E+03  0.10100000352E+00 0. -1.
       -3    1    3    3    0  502  0.21250594534E+03 -0.22970434652E+03  0.13536083771E+04  0.13893086455E+04  0.10100000352E+00 0.  1.
</event>
<event>
 5   0  0.1255362E-04  0.1701442E+04  0.7818609E-02  0.8760543E-01
        2   -1    0    0  501    0  0.00000000000E+00  0.00000000000E+00  0.20613132601E+04  0.20613132601E+04  0.25500000920E-02 0.  1.
       -2   -1    0    0    0  501  0.00000000000E+00  0.00000000000E+00 -0.35109941583E+03  0.35109941584E+03  0.25500000920E-02 0. -1.
    10030    2    1    2    0    0  0.00000000000E+00  0.00000000000E+00  0.17102138443E+04  0.24124126760E+04  0.17014416023E+04 0.  0.
        1    1    3    3  502    0 -0.13335038322E+03 -0.83491071834E+03  0.72158923362E+03  0.11115526323E+04  0.50400001928E-02 0. -1.
       -1    1    3    3    0  502  0.13335038322E+03  0.83491071834E+03  0.98862461068E+03  0.13008600437E+04  0.50400001928E-02 0.  1.
</event>
<event>
 5   0  0.6539134E-05  0.1694631E+04  0.7818609E-02  0.8764433E-01
        1   -1    0    0  501    0  0.00000000000E+00  0.00000000000E+00  0.68969695352E+03  0.68969695354E+03  0.50400001928E-02 0.  1.
       -1   -1    0    0    0  501  0.00000000000E+00  0.00000000000E+00 -0.10409546268E+04  0.10409546268E+04  0.50400001928E-02 0. -1.
    10030    2    1    2    0    0  0.00000000000E+00  0.00000000000E+00 -0.35125767324E+03  0.17306515803E+04  0.16946306203E+04 0.  0.
        2    1    3    3  502    0 -0.72700177786E+03 -0.15776722776E+03 -0.58986257126E+03  0.94939977677E+03  0.25500000920E-02 0. -1.
       -2    1    3    3    0  502  0.72700177786E+03  0.15776722776E+03  0.23860489802E+03  0.78125180353E+03  0.25500000920E-02 0.  1.
</event>
<event>
 5   0  0.1255362E-04  0.1698665E+04  0.7818609E-02  0.8762126E-01
        2   -1    0    0  501    0  0.00000000000E+00  0.00000000000E+00  0.22518621322E+04  0.22518621322E+04  0.25500000920E-02 0. -1.
       -2   -1    0    0    0  501  0.00000000000E+00  0.00000000000E+00 -0.32034182583E+03  0.32034182584E+03  0.25500000920E-02 0.  1.
    10030    2    1    2    0    0  0.00000000000E+00  0.00000000000E+00  0.19315203064E+04  0.25722039581E+04  0.16986649192E+04 0.  0.
        1    1    3    3  502    0 -0.28552428161E+03 -0.12271500274E+03 -0.23115158566E+03  0.38731659255E+03  0.50400001928E-02 0.  1.
       -1    1    3    3    0  502  0.28552428161E+03  0.12271500274E+03  0.21626718921E+04  0.21848873655E+04  0.50400001928E-02 0. -1.
</event>
<event>
 5   0  0.1393870E-04  0.1701407E+04  0.7818609E-02  0.8760562E-01
        2   -1    0    0  501    0  0.00000000000E+00  0.00000000000E+00  0.11429692359E+04  0.11429692359E+04  0.25500000920E-02 0. -1.
       -2   -1    0    0    0  501  0.00000000000E+00  0.00000000000E+00 -0.63317241741E+03  0.63317241742E+03  0.25500000920E-02 0.  1.
    10030    2    1    2    0    0  0.00000000000E+00  0.00000000000E+00  0.50979681852E+03  0.17761416533E+04  0.17014071754E+04 0.  0.
        3    1    3    3  502    0 -0.21964926457E+03  0.76368084047E+02 -0.59934792933E+03  0.64288088654E+03  0.10100000352E+00 0.  1.
       -3    1    3    3    0  502  0.21964926457E+03 -0.76368084047E+02  0.11091447478E+04  0.11332607668E+04  0.10100000352E+00 0. -1.
</event>
<event>
 5   0  0.6601906E-05  0.1701892E+04  0.7818609E-02  0.8760286E-01
       -1   -1    0    0    0  501  0.00000000000E+00  0.00000000000E+00  0.61839027183E+03  0.61839027185E+03  0.50400001928E-02 0.  1.
        1   -1    0    0  501    0  0.00000000000E+00  0.00000000000E+00 -0.11709585614E+04  0.11709585614E+04  0.50400001928E-02 0. -1.
    10030    2    1    2    0    0  0.00000000000E+00  0.00000000000E+00 -0.55256828957E+03  0.17893488333E+04  0.17018923387E+04 0.  0.
        1    1    3    3  502    0  0.26110285676E+03  0.78679082041E+03 -0.47823514977E+03  0.95703884738E+03  0.50400001928E-02 0. -1.
       -1    1    3    3    0  502 -0.26110285676E+03 -0.78679082041E+03 -0.74333139800E+02  0.83230998588E+03  0.50400001928E-02 0.  1.
</event>
<event>
 5   0  0.6601906E-05  0.1697250E+04  0.7818609E-02  0.8762935E-01
       -1   -1    0    0    0  501  0.00000000000E+00  0.00000000000E+00  0.12569695065E+04  0.12569695065E+04  0.50400001928E-02 0. -1.
        1   -1    0    0  501    0  0.00000000000E+00  0.00000000000E+00 -0.57293673671E+03  0.57293673673E+03  0.50400001928E-02 0.  1.
    10030    2    1    2    0    0  0.00000000000E+00  0.00000000000E+00  0.68403276979E+03  0.18299062432E+04  0.16972495482E+04 0.  0.
        1    1    3    3  502    0  0.59304969733E+03 -0.79806437529E+02  0.99078465483E+03  0.11574675992E+04  0.50400001928E-02 0. -1.
       -1    1    3    3    0  502 -0.59304969733E+03  0.79806437529E+02 -0.30675188504E+03  0.67243864402E+03  0.50400001928E-02 0.  1.
</event>
<event>
 5   0  0.1255362E-04  0.1612302E+04  0.7818609E-02  0.8813026E-01
       -2   -1    0    0    0  501  0.00000000000E+00  0.00000000000E+00  0.48889884802E+03  0.48889884802E+03  0.25500000920E-02 0.  1.
        2   -1    0    0  501    0  0.00000000000E+00  0.00000000000E+00 -0.13292720593E+04  0.13292720593E+04  0.25500000920E-02 0. -1.
    10030    2    1    2    0    0  0.00000000000E+00  0.00000000000E+00 -0.84037321125E+03  0.18181709073E+04  0.16123021782E+04 0.  0.
        1    1    3    3  502    0  0.27951692394E+03 -0.73881124956E+03 -0.23867534410E+03  0.82518948924E+03  0.50400001928E-02 0.  1.
       -1    1    3    3    0  502 -0.27951692394E+03  0.73881124956E+03 -0.60169786715E+03  0.99298141805E+03  0.50400001928E-02 0. -1.
</event>
<event>
 5   0  0.6539134E-05  0.1694799E+04  0.7818609E-02  0.8764337E-01
        1   -1    0    0  501    0  0.00000000000E+00  0.00000000000E+00  0.43615977986E+03  0.43615977989E+03  0.50400001928E-02 0.  1.
       -1   -1    0    0    0  501  0.00000000000E+00  0.00000000000E+00 -0.16463818134E+04  0.16463818134E+04  0.50400001928E-02 0. -1.
    10030    2    1    2    0    0  0.00000000000E+00  0.00000000000E+00 -0.12102220335E+04  0.20825415933E+04  0.16947985477E+04 0.  0.
        2    1    3    3  502    0 -0.14112646021E+03  0.30553185505E+03  0.35051587611E+03  0.48592980114E+03  0.25500000920E-02 0.  1.
       -2    1    3    3    0  502  0.14112646021E+03 -0.30553185505E+03 -0.15607379096E+04  0.15966117921E+04  0.25500000920E-02 0. -1.
</event>
<event>
 5   0  0.6601906E-05  0.1672794E+04  0.7818609E-02  0.8777035E-01
       -1   -1    0    0    0  501  0.00000000000E+00  0.00000000000E+00  0.85229545609E+03  0.85229545611E+03  0.50400001928E-02 0. -1.
        1   -1    0    0  501    0  0.00000000000E+00  0.00000000000E+00 -0.82079529411E+03  0.82079529412E+03  0.50400001928E-02 0.  1.
    10030    2    1    2    0    0  0.00000000000E+00  0.00000000000E+00  0.31500161985E+02  0.16730907502E+04  0.16727941889E+04 0.  0.
        1    1    3    3  502    0 -0.63118091877E+03  0.38854779162E+03 -0.37187683059E+03  0.82924731881E+03  0.50400001928E-02 0.  1.
       -1    1    3    3    0  502  0.63118091877E+03 -0.38854779162E+03  0.40337699258E+03  0.84384343143E+03  0.50400001928E-02 0. -1.
</event>
<event>
 5   0  0.1393870E-04  0.1708823E+04  0.7818609E-02  0.8756348E-01
       -2   -1    0    0    0  501  0.00000000000E+00  0.00000000000E+00  0.83600718282E+03  0.83600718283E+03  0.25500000920E-02 0. -1.
        2   -1    0    0  501    0  0.00000000000E+00  0.00000000000E+00 -0.87322139325E+03  0.87322139326E+03  0.25500000920E-02 0.  1.
    10030    2    1    2    0    0  0.00000000000E+00  0.00000000000E+00 -0.37214210429E+02  0.17092285761E+04  0.17088234045E+04 0.  0.
        3    1    3    3  502    0  0.33076210537E+03  0.63601731606E+02 -0.80401337936E+03  0.87171456051E+03  0.10100000352E+00 0.  1.
       -3    1    3    3    0  502 -0.33076210537E+03 -0.63601731606E+02  0.76679916893E+03  0.83751401558E+03  0.10100000352E+00 0. -1.
</event>
<event>
 5   0  0.6564887E-05  0.1699707E+04  0.7818609E-02  0.8761531E-01
       -1   -1    0    0    0  501  0.00000000000E+00  0.00000000000E+00  0.13402155652E+04  0.13402155652E+04  0.50400001928E-02 0.  1.
        1   -1    0    0  501    0  0.00000000000E+00  0.00000000000E+00 -0.53890658782E+03  0.53890658784E+03  0.50400001928E-02 0. -1.
    10030    2    1    2    0    0  0.00000000000E+00  0.00000000000E+00  0.80130897739E+03  0.18791221531E+04  0.16997070303E+04 0.  0.
        4    1    3    3  502    0 -0.30134095934E+03  0.14472997280E+03 -0.46316389113E+03  0.57120534114E+03  0.12699999809E+01 0. -1.
       -4    1    3    3    0  502  0.30134095934E+03 -0.14472997280E+03  0.12644728685E+04  0.13079168119E+04  0.12699999809E+01 0.  1.
</event>
<event>
 5   0  0.6601906E-05  0.1693586E+04  0.7818609E-02  0.8765031E-01
        1   -1    0    0  501    0  0.00000000000E+00  0.00000000000E+00  0.14918256058E+04  0.14918256058E+04  0.50400001928E-02 0.  1.
       -1   -1    0    0    0  501  0.00000000000E+00  0.00000000000E+00 -0.48065806063E+03  0.48065806066E+03  0.50400001928E-02 0. -1.
    10030    2    1    2    0    0  0.00000000000E+00  0.00000000000E+00  0.10111675452E+04  0.19724836665E+04  0.16935855485E+04 0.  0.
        1    1    3    3  502    0  0.18294997695E+03  0.79374749285E+03  0.23606126383E+03  0.84807470000E+03  0.50400001928E-02 0. -1.
       -1    1    3    3    0  502 -0.18294997695E+03 -0.79374749285E+03  0.77510628132E+03  0.11244089665E+04  0.50400001928E-02 0.  1.
</event>
<event>
 5   0  0.6601906E-05  0.1703626E+04  0.7818609E-02  0.8759299E-01
        1   -1    0    0  501    0  0.00000000000E+00  0.00000000000E+00  0.15767554341E+04  0.15767554341E+04  0.50400001928E-02 0. -1.
       -1   -1    0    0    0  501  0.00000000000E+00  0.00000000000E+00 -0.46017626110E+03  0.46017626113E+03  0.50400001928E-02 0.  1.
    10030    2    1    2    0    0  0.00000000000E+00  0.00000000000E+00  0.11165791730E+04  0.20369316953E+04  0.17036260392E+04 0.  0.
        1    1    3    3  502    0 -0.38467291037E+03 -0.22843440629E+03 -0.30839203205E+03  0.54337939914E+03  0.50400001928E-02 0.  1.
       -1    1    3    3    0  502  0.38467291037E+03  0.22843440629E+03  0.14249712051E+04  0.14935522961E+04  0.50400001928E-02 0. -1.
</event>
<event>
 5   0  0.1269175E-04  0.1703207E+04  0.7818609E-02  0.8759538E-01
        2   -1    0    0  501    0  0.00000000000E+00  0.00000000000E+00  0.70056196811E+03  0.70056196812E+03  0.25500000920E-02 0.  1.
       -2   -1    0    0    0  501  0.00000000000E+00  0.00000000000E+00 -0.10352092493E+04  0.10352092493E+04  0.25500000920E-02 0. -1.
    10030    2    1    2    0    0  0.00000000000E+00  0.00000000000E+00 -0.33464728114E+03  0.17357712174E+04  0.17032066570E+04 0.  0.
        2    1    3    3  502    0 -0.44928093266E+03  0.64535009754E+03  0.16588033848E+03  0.80364568782E+03  0.25500000920E-02 0. -1.
       -2    1    3    3    0  502  0.44928093266E+03 -0.64535009754E+03 -0.50052761962E+03  0.93212552956E+03  0.25500000920E-02 0.  1.
</event>
<event>
 5   0  0.1285639E-04  0.1700107E+04  0.7818609E-02  0.8761304E-01
       -2   -1    0    0    0  501  0.00000000000E+00  0.00000000000E+00  0.47013161319E+03  0.47013161319E+03  0.25500000920E-02 0.  1.
        2   -1    0    0  501    0  0.00000000000E+00  0.00000000000E+00 -0.15369965226E+04  0.15369965226E+04  0.25500000920E-02 0. -1.
    10030    2    1    2    0    0  0.00000000000E+00  0.00000000000E+00 -0.10668649094E+04  0.20071281357E+04  0.17001066491E+04 0.  0.
        4    1    3    3  502    0 -0.13704690908E+03 -0.40680248332E+03 -0.13996336075E+04  0.14639829111E+04  0.12699999809E+01 0. -1.
       -4    1    3    3    0  502  0.13704690908E+03  0.40680248332E+03  0.33276869815E+03  0.54314522468E+03  0.12699999809E+01 0.  1.
</event>
<event>
 5   0  0.1393870E-04  0.1702951E+04  0.7818609E-02  0.8759683E-01
        2   -1    0    0  501    0  0.00000000000E+00  0.00000000000E+00  0.88906617699E+03  0.88906617700E+03  0.25500000920E-02 0. -1.
       -2   -1    0    0    0  501  0.00000000000E+00  0.00000000000E+00 -0.81547457231E+03  0.81547457231E+03  0.25500000920E-02 0.  1.
    10030    2    1    2    0    0  0.00000000000E+00  0.00000000000E+00  0.73591604685E+02  0.17045407493E+04  0.17029513915E+04 0.  0.
        3    1    3    3  502    0  0.36002641082E+03 -0.70087141899E+03  0.35985249006E+03  0.86621797906E+03  0.10100000352E+00 0. -1.
       -3    1    3    3    0  502 -0.36002641082E+03  0.70087141899E+03 -0.28626088538E+03  0.83832277026E+03  0.10100000352E+00 0.  1.
</event>
<event>
 5   0  0.6615842E-05  0.1704108E+04  0.7818609E-02  0.8759025E-01
        1   -1    0    0  501    0  0.00000000000E+00  0.00000000000E+00  0.75037531034E+03  0.75037531036E+03  0.50400001928E-02 0.  1.
       -1   -1    0    0    0  501  0.00000000000E+00  0.00000000000E+00 -0.96751106615E+03  0.96751106617E+03  0.50400001928E-02 0. -1.
    10030    2    1    2    0    0  0.00000000000E+00  0.00000000000E+00 -0.21713575581E+03  0.17178863765E+04  0.17041084667E+04 0.  0.
        3    1    3    3  502    0  0.23362974659E+03  0.15730584546E+03  0.70209078372E+03  0.75647833168E+03  0.10100000352E+00 0.  1.
       -3    1    3    3    0  502 -0.23362974659E+03 -0.15730584546E+03 -0.91922653953E+03  0.96140804485E+03  0.10100000352E+00 0. -1.
</event>
<event>
 5   0  0.1333546E-04  0.1698937E+04  0.7818609E-02  0.8761971E-01
        2   -1    0    0  501    0  0.00000000000E+00  0.00000000000E+00  0.12777376940E+04  0.12777376940E+04  0.25500000920E-02 0.  1.
       -2   -1    0    0    0  501  0.00000000000E+00  0.00000000000E+00 -0.56474538980E+03  0.56474538981E+03  0.25500000920E-02 0. -1.
    10030    2    1    2    0    0  0.00000000000E+00  0.00000000000E+00  0.71299230424E+03  0.18424830839E+04  0.16989366935E+04 0.  0.
        5    1    3    3  502    0  0.66122055127E+03 -0.41969654009E+03 -0.26143098824E+00  0.78318577715E+03  0.46999998093E+01 0. -1.
       -5    1    3    3    0  502 -0.66122055127E+03  0.41969654009E+03  0.71325373523E+03  0.10592973067E+04  0.46999998093E+01 0.  1.
</event>
<event>
 5   0  0.1269175E-04  0.1708992E+04  0.7818609E-02  0.8756252E-01
        2   -1    0    0  501    0  0.00000000000E+00  0.00000000000E+00  0.16309004171E+04  0.16309004171E+04  0.25500000920E-02 0.  1.
       -2   -1    0    0    0  501  0.00000000000E+00  0.00000000000E+00 -0.44770582338E+03  0.44770582339E+03  0.25500000920E-02 0. -1.
    10030    2    1    2    0    0  0.00000000000E+00  0.00000000000E+00  0.11831945937E+04  0.20786062405E+04  0.17089922341E+04 0.  0.
        2    1    3    3  502    0  0.78482369555E+03  0.17436509637E+02  0.18109495852E+03  0.80563493529E+03  0.25500000920E-02 0. -1.
       -2    1    3    3    0  502 -0.78482369555E+03 -0.17436509637E+02  0.10020996352E+04  0.12729713052E+04  0.25500000920E-02 0.  1.
</event>
<event>
 5   0  0.6615842E-05  0.1707628E+04  0.7818609E-02  0.8757026E-01
        1   -1    0    0  501    0  0.00000000000E+00  0.00000000000E+00  0.20641531345E+04  0.20641531345E+04  0.50400001928E-02 0.  1.
       -1   -1    0    0    0  501  0.00000000000E+00  0.00000000000E+00 -0.35317073376E+03  0.35317073380E+03  0.50400001928E-02 0. -1.
    10030    2    1    2    0    0  0.00000000000E+00  0.00000000000E+00  0.17109824007E+04  0.24173238683E+04  0.17076281529E+04 0.  0.
        3    1    3    3  502    0  0.52320458437E+03 -0.27089487123E+03 -0.19291326852E+02  0.58949065629E+03  0.10100000352E+00 0. -1.
       -3    1    3    3    0  502 -0.52320458437E+03  0.27089487123E+03  0.17302737276E+04  0.18278332120E+04  0.10100000352E+00 0.  1.
</event>
<event>
 5   0  0.1333546E-04  0.1708148E+04  0.7818609E-02  0.8756731E-01
        2   -1    0    0  501    0  0.00000000000E+00  0.00000000000E+00  0.12392720478E+04  0.12392720478E+04  0.25500000920E-02 0.  1.
       -2   -1    0    0    0  501  0.00000000000E+00  0.00000000000E+00 -0.58860571320E+03  0.58860571321E+03  0.25500000920E-02 0. -1.
    10030    2    1    2    0    0  0.00000000000E+00  0.00000000000E+00  0.65066633455E+03  0.18278777610E+04  0.17081482459E+04 0.  0.
        5    1    3    3  502    0 -0.81735619803E+03  0.23864035637E+03  0.25435006044E+03  0.88867115256E+03  0.46999998093E+01 0.  1.
       -5    1    3    3    0  502  0.81735619803E+03 -0.23864035637E+03  0.39631627411E+03  0.93920660841E+03  0.46999998093E+01 0. -1.
</event>
<event>
 5   0  0.4720875E-05  0.1698647E+04  0.7818609E-02  0.8762137E-01
       -3   -1    0    0    0  501  0.00000000000E+00  0.00000000000E+00  0.42816270623E+03  0.42816271815E+03  0.10100000352E+00 0. -1.
        3   -1    0    0  501    0  0.00000000000E+00  0.00000000000E+00 -0.16847568276E+04  0.16847568306E+04  0.10100000352E+00 0.  1.
    10030    2    1    2    0    0  0.00000000000E+00  0.00000000000E+00 -0.12565941214E+04  0.21129195488E+04  0.16986465888E+04 0.  0.
        4    1    3    3  502    0 -0.27535222501E+03 -0.55126515097E+03  0.98749048265E+02  0.62407139169E+03  0.12699999809E+01 0. -1.
       -4    1    3    3    0  502  0.27535222501E+03  0.55126515097E+03 -0.13553431696E+04  0.14888481571E+04  0.12699999809E+01 0.  1.
</event>
<event>
 5   0  0.1333546E-04  0.1698143E+04  0.7818609E-02  0.8762424E-01
        2   -1    0    0  501    0  0.00000000000E+00  0.00000000000E+00  0.11839039654E+04  0.11839039654E+04  0.25500000920E-02 0. -1.
       -2   -1    0    0    0  501  0.00000000000E+00  0.00000000000E+00 -0.60893684101E+03  0.60893684102E+03  0.25500000920E-02 0.  1.
    10030    2    1    2    0    0  0.00000000000E+00  0.00000000000E+00  0.57496712441E+03  0.17928408064E+04  0.16981433871E+04 0.  0.
        5    1    3    3  502    0  0.45271992827E+03 -0.67992458659E+03  0.53202002609E+03  0.97484366699E+03  0.46999998093E+01 0. -1.
       -5    1    3    3    0  502 -0.45271992827E+03  0.67992458659E+03  0.42947098321E+02  0.81799713946E+03  0.46999998093E+01 0.  1.
</event>
<event>
 5   0  0.1255362E-04  0.1694707E+04  0.7818609E-02  0.8764389E-01
       -2   -1    0    0    0  501  0.00000000000E+00  0.00000000000E+00  0.72636301100E+03  0.72636301101E+03  0.25500000920E-02 0.  1.
        2   -1    0    0  501    0  0.00000000000E+00  0.00000000000E+00 -0.98849724630E+03  0.98849724631E+03  0.25500000920E-02 0. -1.
    10030    2    1    2    0    0  0.00000000000E+00  0.00000000000E+00 -0.26213423530E+03  0.17148602573E+04  0.16947068610E+04 0.  0.
        1    1    3    3  502    0  0.32907107201E+03 -0.75931283357E+03  0.53208623884E+02  0.82926166397E+03  0.50400001928E-02 0.  1.
       -1    1    3    3    0  502 -0.32907107201E+03  0.75931283357E+03 -0.31534285919E+03  0.88559859334E+03  0.50400001928E-02 0. -1.
</event>
<event>
 5   0  0.1285639E-04  0.1702514E+04  0.7818609E-02  0.8759932E-01
        2   -1    0    0  501    0  0.00000000000E+00  0.00000000000E+00  0.13091217818E+04  0.13091217818E+04  0.25500000920E-02 0.  1.
       -2   -1    0    0    0  501  0.00000000000E+00  0.00000000000E+00 -0.55353007043E+03  0.55353007043E+03  0.25500000920E-02 0. -1.
    10030    2    1    2    0    0  0.00000000000E+00  0.00000000000E+00  0.75559171134E+03  0.18626518522E+04  0.17025137557E+04 0.  0.
        4    1    3    3  502    0  0.56878970428E+03 -0.35441456906E+03 -0.19646074324E+03  0.69837658251E+03  0.12699999809E+01 0. -1.
       -4    1    3    3    0  502 -0.56878970428E+03  0.35441456906E+03  0.95205245458E+03  0.11642752697E+04  0.12699999809E+01 0.  1.
</event>
<event>
 5   0  0.6615842E-05  0.1709868E+04  0.7818609E-02  0.8755756E-01
       -1   -1    0    0    0  501  0.00000000000E+00  0.00000000000E+00  0.48613609104E+03  0.48613609107E+03  0.50400001928E-02 0.  1.
        1   -1    0    0  501    0  0.00000000000E+00  0.00000000000E+00 -0.15035130389E+04  0.15035130389E+04  0.50400001928E-02 0. -1.
    10030    2    1    2    0    0  0.00000000000E+00  0.00000000000E+00 -0.10173769479E+04  0.19896491300E+04  0.17098677745E+04 0.  0.
        3    1    3    3  502    0 -0.34371779122E+03  0.41120294731E+03 -0.12837745784E+04  0.13911531052E+04  0.10100000352E+00 0. -1.
       -3    1    3    3    0  502  0.34371779122E+03 -0.41120294731E+03  0.26639763054E+03  0.59849602474E+03  0.10100000352E+00 0.  1.
</event>
<event>
 5   0  0.6564887E-05  0.1702427E+04  0.7818609E-02  0.8759981E-01
       -1   -1    0    0    0  501  0.00000000000E+00  0.00000000000E+00  0.23204659632E+04  0.23204659632E+04  0.50400001928E-02 0.  1.
        1   -1    0    0  501    0  0.00000000000E+00  0.00000000000E+00 -0.31224952544E+03  0.31224952548E+03  0.50400001928E-02 0. -1.
    10030    2    1    2    0    0  0.00000000000E+00  0.00000000000E+00  0.20082164378E+04  0.26327154887E+04  0.17024269686E+04 0.  0.
        4    1    3    3  502    0  0.37994780952E+03 -0.76165043372E+03  0.10188654077E+04  0.13276144218E+04  0.12699999809E+01 0.  1.
       -4    1    3    3    0  502 -0.37994780952E+03  0.76165043372E+03  0.98935103008E+03  0.13051010669E+04  0.12699999809E+01 0. -1.
</event>
<event>
 5   0  0.1255362E-04  0.1699141E+04  0.7818609E-02  0.8761855E-01
       -2   -1    0    0    0  501  0.00000000000E+00  0.00000000000E+00  0.47028981749E+03  0.47028981749E+03  0.25500000920E-02 0. -1.
        2   -1    0    0  501    0  0.00000000000E+00  0.00000000000E+00 -0.15347338469E+04  0.15347338469E+04  0.25500000920E-02 0.  1.
    10030    2    1    2    0    0  0.00000000000E+00  0.00000000000E+00 -0.10644440294E+04  0.20050236644E+04  0.16991406072E+04 0.  0.
        1    1    3    3  502    0 -0.57138029764E+03 -0.17422803961E+03  0.18063139483E+03  0.62406614645E+03  0.50400001928E-02 0. -1.
       -1    1    3    3    0  502  0.57138029764E+03  0.17422803961E+03 -0.12450754242E+04  0.13809575180E+04  0.50400001928E-02 0.  1.
</event>
<event>
 5   0  0.6601906E-05  0.1699078E+04  0.7818609E-02  0.8761890E-01
       -1   -1    0    0    0  501  0.00000000000E+00  0.00000000000E+00  0.14010918710E+04  0.14010918710E+04  0.50400001928E-02 0. -1.
        1   -1    0    0  501    0  0.00000000000E+00  0.00000000000E+00 -0.51511024329E+03  0.51511024331E+03  0.50400001928E-02 0.  1.
    10030    2    1    2    0    0  0.00000000000E+00  0.00000000000E+00  0.88598162771E+03  0.19162021143E+04  0.16990783085E+04 0.  0.
        1    1    3    3  502    0 -0.70893117958E+03  0.46748023300E+03  0.41546746813E+03  0.94537527085E+03  0.50400001928E-02 0. -1.
       -1    1    3    3    0  502  0.70893117958E+03 -0.46748023300E+03  0.47051415959E+03  0.97082684348E+03  0.50400001928E-02 0.  1.
</event>
<event>
 5   0  0.1285639E-04  0.1699781E+04  0.7818609E-02  0.8761489E-01
        2   -1    0    0  501    0  0.00000000000E+00  0.00000000000E+00  0.12226408028E+04  0.12226408028E+04  0.25500000920E-02 0. -1.
       -2   -1    0    0    0  501  0.00000000000E+00  0.00000000000E+00 -0.59078163904E+03  0.59078163905E+03  0.25500000920E-02 0.  1.
    10030    2    1    2    0    0  0.00000000000E+00  0.00000000000E+00  0.63185916380E+03  0.18134224419E+04  0.16997808535E+04 0.  0.
        4    1    3    3  502    0 -0.48036013541E+03 -0.29011020245E+03 -0.36502447262E+03  0.66944325209E+03  0.12699999809E+01 0.  1.
       -4    1    3    3    0  502  0.48036013541E+03  0.29011020245E+03  0.99688363641E+03  0.11439791898E+04  0.12699999809E+01 0. -1.
</event>
<event>
 5   0  0.1333546E-04  0.1704830E+04  0.7818609E-02  0.8758615E-01
        2   -1    0    0  501    0  0.00000000000E+00  0.00000000000E+00  0.69773955438E+03  0.69773955439E+03  0.25500000920E-02 0. -1.
       -2   -1    0    0    0  501  0.00000000000E+00  0.00000000000E+00 -0.10413785415E+04  0.10413785415E+04  0.25500000920E-02 0.  1.
    10030    2    1    2    0    0  0.00000000000E+00  0.00000000000E+00 -0.34363898714E+03  0.17391180959E+04  0.17048296097E+04 0.  0.
        5    1    3    3  502    0  0.65990410251E+03  0.50144049916E+03 -0.37500612360E+03  0.90970747026E+03  0.46999998093E+01 0.  1.
       -5    1    3    3    0  502 -0.65990410251E+03 -0.50144049916E+03  0.31367136461E+02  0.82941062566E+03  0.46999998093E+01 0. -1.
</event>
<event>
 5   0  0.1333546E-04  0.1697075E+04  0.7818609E-02  0.8763034E-01
        2   -1    0    0  501    0  0.00000000000E+00  0.00000000000E+00  0.12952915943E+04  0.12952915943E+04  0.25500000920E-02 0. -1.
       -2   -1    0    0    0  501  0.00000000000E+00  0.00000000000E+00 -0.55587151807E+03  0.55587151807E+03  0.25500000920E-02 0.  1.
    10030    2    1    2    0    0  0.00000000000E+00  0.00000000000E+00  0.73942007624E+03  0.18511631124E+04  0.16970747831E+04 0.  0.
        5    1    3    3  502    0 -0.41928954041E+03 -0.56744809527E+03  0.88388208114E+03  0.11309600713E+04  0.46999998093E+01 0. -1.
       -5    1    3    3    0  502  0.41928954041E+03  0.56744809527E+03 -0.14446200490E+03  0.72020304108E+03  0.46999998093E+01 0.  1.
</event>
<event>
 5   0  0.6564887E-05  0.1713777E+04  0.7818609E-02  0.8753546E-01
       -1   -1    0    0    0  501  0.00000000000E+00  0.00000000000E+00  0.84515894680E+03  0.84515894681E+03  0.50400001928E-02 0.  1.
        1   -1    0    0  501    0  0.00000000000E+00  0.00000000000E+00 -0.86878093019E+03  0.86878093020E+03  0.50400001928E-02 0. -1.
    10030    2    1    2    0    0  0.00000000000E+00  0.00000000000E+00 -0.23621983388E+02  0.17139398770E+04  0.17137770870E+04 0.  0.
        4    1    3    3  502    0  0.21246141669E+02 -0.15727480323E+03  0.83033170101E+03  0.84536329993E+03  0.12699999809E+01 0.  1.
       -4    1    3    3    0  502 -0.21246141669E+02  0.15727480323E+03 -0.85395368440E+03  0.86857657709E+03  0.12699999809E+01 0. -1.
</event>
<event>
 5   0  0.6564887E-05  0.1708741E+04  0.7818609E-02  0.8756395E-01
        1   -1    0    0  501    0  0.00000000000E+00  0.00000000000E+00  0.91136529686E+03  0.91136529688E+03  0.50400001928E-02 0. -1.
       -1   -1    0    0    0  501  0.00000000000E+00  0.00000000000E+00 -0.80093989590E+03  0.80093989592E+03  0.50400001928E-02 0.  1.
    10030    2    1    2    0    0  0.00000000000E+00  0.00000000000E+00  0.11042540096E+03  0.17123051928E+04  0.17087408534E+04 0.  0.
        4    1    3    3  502    0 -0.85152445720E+03 -0.33048635497E+02  0.11666843143E+03  0.86011583482E+03  0.12699999809E+01 0.  1.
       -4    1    3    3    0  502  0.85152445720E+03  0.33048635497E+02 -0.62430304695E+01  0.85218935798E+03  0.12699999809E+01 0. -1.
</event>
<event>
 5   0  0.6601906E-05  0.1649408E+04  0.7818609E-02  0.8790757E-01
        1   -1    0    0  501    0  0.00000000000E+00  0.00000000000E+00  0.10440982159E+04  0.10440982159E+04  0.50400001928E-02 0.  1.
       -1   -1    0    0    0  501  0.00000000000E+00  0.00000000000E+00 -0.65141096411E+03  0.65141096413E+03  0.50400001928E-02 0. -1.
    10030    2    1    2    0    0  0.00000000000E+00  0.00000000000E+00  0.39268725182E+03  0.16955091801E+04  0.16494084097E+04 0.  0.
        1    1    3    3  502    0 -0.42477084362E+03  0.39127570567E+03  0.80153472792E+03  0.98791946409E+03  0.50400001928E-02 0. -1.
       -1    1    3    3    0  502  0.42477084362E+03 -0.39127570567E+03 -0.40884747610E+03  0.70758971599E+03  0.50400001928E-02 0.  1.
</event>
<event>
 5   0  0.1333546E-04  0.1726831E+04  0.7818609E-02  0.8746208E-01
        2   -1    0    0  501    0  0.00000000000E+00  0.00000000000E+00  0.46069971866E+03  0.46069971867E+03  0.25500000920E-02 0. -1.
       -2   -1    0    0    0  501  0.00000000000E+00  0.00000000000E+00 -0.16181606236E+04  0.16181606236E+04  0.25500000920E-02 0.  1.
    10030    2    1    2    0    0  0.00000000000E+00  0.00000000000E+00 -0.11574609049E+04  0.20788603423E+04  0.17268307897E+04 0.  0.
        5    1    3    3  502    0  0.38322948717E+03  0.24931086535E+03 -0.14604641653E+04  0.15303589173E+04  0.46999998093E+01 0.  1.
       -5    1    3    3    0  502 -0.38322948717E+03 -0.24931086535E+03  0.30300326041E+03  0.54850142500E+03  0.46999998093E+01 0. -1.
</event>
<event>
 5   0  0.1285639E-04  0.1694329E+04  0.7818609E-02  0.8764605E-01
       -2   -1    0    0    0  501  0.00000000000E+00  0.00000000000E+00  0.96369959864E+03  0.96369959864E+03  0.25500000920E-02 0. -1.
        2   -1    0    0  501    0  0.00000000000E+00  0.00000000000E+00 -0.74472161518E+03  0.74472161518E+03  0.25500000920E-02 0.  1.
    10030    2    1    2    0    0  0.00000000000E+00  0.00000000000E+00  0.21897798346E+03  0.17084212138E+04  0.16943292734E+04 0.  0.
        4    1    3    3  502    0 -0.22816463361E+03  0.72934960327E+03  0.47814766415E+03  0.90146366840E+03  0.12699999809E+01 0. -1.
       -4    1    3    3    0  502  0.22816463361E+03 -0.72934960327E+03 -0.25916968069E+03  0.80695754542E+03  0.12699999809E+01 0.  1.
</event>
<event>
 5   0  0.1255362E-04  0.1701947E+04  0.7818609E-02  0.8760255E-01
        2   -1    0    0  501    0  0.00000000000E+00  0.00000000000E+00  0.18831346944E+04  0.18831346944E+04  0.25500000920E-02 0. -1.
       -2   -1    0    0    0  501  0.00000000000E+00  0.00000000000E+00 -0.38454802400E+03  0.38454802401E+03  0.25500000920E-02 0.  1.
    10030    2    1    2    0    0  0.00000000000E+00  0.00000000000E+00  0.14985866704E+04  0.22676827184E+04  0.17019467978E+04 0.  0.
        1    1    3    3  502    0 -0.70099680112E+03 -0.45484791118E+03  0.53497651949E+03  0.99221117405E+03  0.50400001928E-02 0. -1.
       -1    1    3    3    0  502  0.70099680112E+03  0.45484791118E+03  0.96361015089E+03  0.12754715443E+04  0.50400001928E-02 0.  1.
</event>
<event>
 5   0  0.1255362E-04  0.1707738E+04  0.7818609E-02  0.8756964E-01
       -2   -1    0    0    0  501  0.00000000000E+00  0.00000000000E+00  0.40901450807E+03  0.40901450808E+03  0.25500000920E-02 0. -1.
        2   -1    0    0  501    0  0.00000000000E+00  0.00000000000E+00 -0.17825579151E+04  0.17825579151E+04  0.25500000920E-02 0.  1.
    10030    2    1    2    0    0  0.00000000000E+00  0.00000000000E+00 -0.13735434071E+04  0.21915724232E+04  0.17077377419E+04 0.  0.
        1    1    3    3  502    0 -0.55129938599E+03 -0.40933120040E+03 -0.13381228317E+04  0.15040132172E+04  0.50400001928E-02 0.  1.
       -1    1    3    3    0  502  0.55129938599E+03  0.40933120040E+03 -0.35420575332E+02  0.68755920603E+03  0.50400001928E-02 0. -1.
</event>
<event>
 5   0  0.6539134E-05  0.1704942E+04  0.7818609E-02  0.8758551E-01
        1   -1    0    0  501    0  0.00000000000E+00  0.00000000000E+00  0.21822045574E+04  0.21822045574E+04  0.50400001928E-02 0. -1.
       -1   -1    0    0    0  501  0.00000000000E+00  0.00000000000E+00 -0.33301483932E+03  0.33301483936E+03  0.50400001928E-02 0.  1.
    10030    2    1    2    0    0  0.00000000000E+00  0.00000000000E+00  0.18491897181E+04  0.25152193968E+04  0.17049416414E+04 0.  0.
        2    1    3    3  502    0 -0.36474218837E+03 -0.48687355844E+03  0.18055859192E+04  0.19053144721E+04  0.25500000920E-02 0. -1.
       -2    1    3    3    0  502  0.36474218837E+03  0.48687355844E+03  0.43603798887E+02  0.60990492469E+03  0.25500000920E-02 0.  1.
</event>
<event>
 5   0  0.6834837E-05  0.1706020E+04  0.7818609E-02  0.8757938E-01
       -1   -1    0    0    0  501  0.00000000000E+00  0.00000000000E+00  0.45039463479E+03  0.45039463482E+03  0.50400001928E-02 0.  1.
        1   -1    0    0  501    0  0.00000000000E+00  0.00000000000E+00 -0.16155304179E+04  0.16155304179E+04  0.50400001928E-02 0. -1.
    10030    2    1    2    0    0  0.00000000000E+00  0.00000000000E+00 -0.11651357831E+04  0.20659250528E+04  0.17060202022E+04 0.  0.
        5    1    3    3  502    0 -0.29777141741E+03 -0.77775164857E+03 -0.80598522656E+03  0.11589649345E+04  0.46999998093E+01 0. -1.
       -5    1    3    3    0  502  0.29777141741E+03  0.77775164857E+03 -0.35915055658E+03  0.90696011829E+03  0.46999998093E+01 0.  1.
</event>
<event>
 5   0  0.1333546E-04  0.1710181E+04  0.7818609E-02  0.8755579E-01
        2   -1    0    0  501    0  0.00000000000E+00  0.00000000000E+00  0.94337121103E+03  0.94337121104E+03  0.25500000920E-02 0. -1.
       -2   -1    0    0    0  501  0.00000000000E+00  0.00000000000E+00 -0.77507065500E+03  0.77507065500E+03  0.25500000920E-02 0.  1.
    10030    2    1    2    0    0  0.00000000000E+00  0.00000000000E+00  0.16830055604E+03  0.17184418660E+04  0.17101805080E+04 0.  0.
        5    1    3    3  502    0  0.38001226233E+03 -0.57299277383E+03 -0.42666280915E+03  0.80919298136E+03  0.46999998093E+01 0.  1.
       -5    1    3    3    0  502 -0.38001226233E+03  0.57299277383E+03  0.59496336519E+03  0.90924888468E+03  0.46999998093E+01 0. -1.
</event>
<event>
 5   0  0.6564887E-05  0.1703650E+04  0.7818609E-02  0.8759285E-01
        1   -1    0    0  501    0  0.00000000000E+00  0.00000000000E+00  0.98147886676E+03  0.98147886677E+03  0.50400001928E-02 0.  1.
       -1   -1    0    0    0  501  0.00000000000E+00  0.00000000000E+00 -0.73929877763E+03  0.73929877765E+03  0.50400001928E-02 0. -1.
    10030    2    1    2    0    0  0.00000000000E+00  0.00000000000E+00  0.24218008913E+03  0.17207776444E+04  0.17036503473E+04 0.  0.
        4    1    3    3  502    0 -0.13981412397E+03  0.98349881204E+02  0.96397562985E+03  0.97901548315E+03  0.12699999809E+01 0.  1.
       -4    1    3    3    0  502  0.13981412397E+03 -0.98349881204E+02 -0.72179554072E+03  0.74176216128E+03  0.12699999809E+01 0. -1.
</event>
<event>
 5   0  0.1269175E-04  0.1698588E+04  0.7818609E-02  0.8762170E-01
       -2   -1    0    0    0  501  0.00000000000E+00  0.00000000000E+00  0.72802732019E+03  0.72802732019E+03  0.25500000920E-02 0.  1.
        2   -1    0    0  501    0  0.00000000000E+00  0.00000000000E+00 -0.99075960898E+03  0.99075960898E+03  0.25500000920E-02 0. -1.
    10030    2    1    2    0    0  0.00000000000E+00  0.00000000000E+00 -0.26273228880E+03  0.17187869292E+04  0.16985877229E+04 0.  0.
        2    1    3    3  502    0  0.55504444227E+03  0.52424647874E+03 -0.50779989061E+03  0.91693480264E+03  0.25500000920E-02 0. -1.
       -2    1    3    3    0  502 -0.55504444227E+03 -0.52424647874E+03  0.24506760182E+03  0.80185212654E+03  0.25500000920E-02 0.  1.
</event>
<event>
 5   0  0.6601906E-05  0.1699858E+04  0.7818609E-02  0.8761445E-01
       -1   -1    0    0    0  501  0.00000000000E+00  0.00000000000E+00  0.79201635334E+03  0.79201635336E+03  0.50400001928E-02 0.  1.
        1   -1    0    0  501    0  0.00000000000E+00  0.00000000000E+00 -0.91207643306E+03  0.91207643308E+03  0.50400001928E-02 0. -1.
    10030    2    1    2    0    0  0.00000000000E+00  0.00000000000E+00 -0.12006007972E+03  0.17040927864E+04  0.16998581712E+04 0.  0.
        1    1    3    3  502    0  0.58641813133E+03  0.54618406691E+03  0.22382934694E+03  0.83204737622E+03  0.50400001928E-02 0. -1.
       -1    1    3    3    0  502 -0.58641813133E+03 -0.54618406691E+03 -0.34388942666E+03  0.87204541022E+03  0.50400001928E-02 0.  1.
</event>
<event>
 5   0  0.1393870E-04  0.1712923E+04  0.7818609E-02  0.8754028E-01
       -2   -1    0    0    0  501  0.00000000000E+00  0.00000000000E+00  0.48398940378E+03  0.48398940379E+03  0.25500000920E-02 0. -1.
        2   -1    0    0  501    0  0.00000000000E+00  0.00000000000E+00 -0.15155833017E+04  0.15155833017E+04  0.25500000920E-02 0.  1.
    10030    2    1    2    0    0  0.00000000000E+00  0.00000000000E+00 -0.10315938979E+04  0.19995727055E+04  0.17129229505E+04 0.  0.
        3    1    3    3  502    0  0.47949472963E+03  0.45365258064E+03  0.12124685115E+03  0.67113088796E+03  0.10100000352E+00 0. -1.
       -3    1    3    3    0  502 -0.47949472963E+03 -0.45365258064E+03 -0.11528407490E+04  0.13284418175E+04  0.10100000352E+00 0.  1.
</event>
<event>
 5   0  0.1333546E-04  0.1703746E+04  0.7818609E-02  0.8759231E-01
        2   -1    0    0  501    0  0.00000000000E+00  0.00000000000E+00  0.82018483195E+03  0.82018483195E+03  0.25500000920E-02 0.  1.
       -2   -1    0    0    0  501  0.00000000000E+00  0.00000000000E+00 -0.88478570472E+03  0.88478570473E+03  0.25500000920E-02 0. -1.
    10030    2    1    2    0    0  0.00000000000E+00  0.00000000000E+00 -0.64600872776E+02  0.17049705367E+04  0.17037462423E+04 0.  0.
        5    1    3    3  502    0 -0.18095463979E+03  0.65699125949E+03  0.47922597951E+03  0.83310367071E+03  0.46999998093E+01 0.  1.
       -5    1    3    3    0  502  0.18095463979E+03 -0.65699125949E+03 -0.54382685229E+03  0.87186686597E+03  0.46999998093E+01 0. -1.
</event>
<event>
 5   0  0.6601906E-05  0.1700878E+04  0.7818609E-02  0.8760863E-01
        1   -1    0    0  501    0  0.00000000000E+00  0.00000000000E+00  0.15652612019E+04  0.15652612019E+04  0.50400001928E-02 0. -1.
       -1   -1    0    0    0  501  0.00000000000E+00  0.00000000000E+00 -0.46206148141E+03  0.46206148143E+03  0.50400001928E-02 0.  1.
    10030    2    1    2    0    0  0.00000000000E+00  0.00000000000E+00  0.11031997205E+04  0.20273226834E+04  0.17008784904E+04 0.  0.
        1    1    3    3  502    0 -0.39896327790E+03  0.29454178222E+03 -0.27188300388E+03  0.56555010955E+03  0.50400001928E-02 0.  1.
       -1    1    3    3    0  502  0.39896327790E+03 -0.29454178222E+03  0.13750827244E+04  0.14617725738E+04  0.50400001928E-02 0. -1.
</event>
<event>
 5   0  0.6564887E-05  0.1701766E+04  0.7818609E-02  0.8760358E-01
       -1   -1    0    0    0  501  0.00000000000E+00  0.00000000000E+00  0.12297145407E+04  0.12297145407E+04  0.50400001928E-02 0. -1.
        1   -1    0    0  501    0  0.00000000000E+00  0.00000000000E+00 -0.58875626714E+03  0.58875626716E+03  0.50400001928E-02 0.  1.
    10030    2    1    2    0    0  0.00000000000E+00  0.00000000000E+00  0.64095827358E+03  0.18184708079E+04  0.17017663091E+04 0.  0.
        4    1    3    3  502    0  0.66498356330E+03 -0.90592125264E+02 -0.23845017372E+03  0.71222901574E+03  0.12699999809E+01 0.  1.
       -4    1    3    3    0  502 -0.66498356330E+03  0.90592125264E+02  0.87940844729E+03  0.11062417921E+04  0.12699999809E+01 0. -1.
</event>
<event>
 5   0  0.4720875E-05  0.1680991E+04  0.7818609E-02  0.8772281E-01
       -3   -1    0    0    0  501  0.00000000000E+00  0.00000000000E+00  0.58726401963E+03  0.58726402832E+03  0.10100000352E+00 0. -1.
        3   -1    0    0  501    0  0.00000000000E+00  0.00000000000E+00 -0.12029222359E+04  0.12029222401E+04  0.10100000352E+00 0.  1.
    10030    2    1    2    0    0  0.00000000000E+00  0.00000000000E+00 -0.61565821623E+03  0.17901862684E+04  0.16809913255E+04 0.  0.
        4    1    3    3  502    0  0.13504205342E+03 -0.76073899789E+03 -0.66018588066E+03  0.10162712182E+04  0.12699999809E+01 0.  1.
       -4    1    3    3    0  502 -0.13504205342E+03  0.76073899789E+03  0.44527664428E+02  0.77391505018E+03  0.12699999809E+01 0. -1.
</event>
<event>
 5   0  0.6834837E-05  0.1706686E+04  0.7818609E-02  0.8757561E-01
        1   -1    0    0  501    0  0.00000000000E+00  0.00000000000E+00  0.51495923454E+03  0.51495923456E+03  0.50400001928E-02 0.  1.
       -1   -1    0    0    0  501  0.00000000000E+00  0.00000000000E+00 -0.14140806295E+04  0.14140806295E+04  0.50400001928E-02 0. -1.
    10030    2    1    2    0    0  0.00000000000E+00  0.00000000000E+00 -0.89912139493E+03  0.19290398640E+04  0.17066855347E+04 0.  0.
        5    1    3    3  502    0 -0.53663977474E+03 -0.14766009243E+03 -0.11806598601E+04  0.13052837033E+04  0.46999998093E+01 0. -1.
       -5    1    3    3    0  502  0.53663977474E+03  0.14766009243E+03  0.28153846518E+03  0.62375616077E+03  0.46999998093E+01 0.  1.
</event>
<event>
 5   0  0.1333546E-04  0.1702429E+04  0.7818609E-02  0.8759980E-01
       -2   -1    0    0    0  501  0.00000000000E+00  0.00000000000E+00  0.69657276546E+03  0.69657276546E+03  0.25500000920E-02 0.  1.
        2   -1    0    0  501    0  0.00000000000E+00  0.00000000000E+00 -0.10401870703E+04  0.10401870704E+04  0.25500000920E-02 0. -1.
    10030    2    1    2    0    0  0.00000000000E+00  0.00000000000E+00 -0.34361430489E+03  0.17367598358E+04  0.17024288346E+04 0.  0.
        5    1    3    3  502    0  0.81624108254E+03  0.90980935950E+02  0.56347330613E+02  0.82324003012E+03  0.46999998093E+01 0.  1.
       -5    1    3    3    0  502 -0.81624108254E+03 -0.90980935950E+02 -0.39996163550E+03  0.91351980570E+03  0.46999998093E+01 0. -1.
</event>
<event>
 5   0  0.1333546E-04  0.1704672E+04  0.7818609E-02  0.8758704E-01
        2   -1    0    0  501    0  0.00000000000E+00  0.00000000000E+00  0.10905771817E+04  0.10905771817E+04  0.25500000920E-02 0. -1.
       -2   -1    0    0    0  501  0.00000000000E+00  0.00000000000E+00 -0.66613952977E+03  0.66613952978E+03  0.25500000920E-02 0.  1.
    10030    2    1    2    0    0  0.00000000000E+00  0.00000000000E+00  0.42443765191E+03  0.17567167115E+04  0.17046718992E+04 0.  0.
        5    1    3    3  502    0 -0.44195449199E+03 -0.55412836728E+03 -0.27559619856E+03  0.76049810984E+03  0.46999998093E+01 0.  1.
       -5    1    3    3    0  502  0.44195449199E+03  0.55412836728E+03  0.70003385047E+03  0.99621860162E+03  0.46999998093E+01 0. -1.
</event>
<event>
 5   0  0.1393870E-04  0.1702742E+04  0.7818609E-02  0.8759802E-01
        2   -1    0    0  501    0  0.00000000000E+00  0.00000000000E+00  0.22597244448E+04  0.22597244448E+04  0.25500000920E-02 0.  1.
       -2   -1    0    0    0  501  0.00000000000E+00  0.00000000000E+00 -0.32076143101E+03  0.32076143102E+03  0.25500000920E-02 0. -1.
    10030    2    1    2    0    0  0.00000000000E+00  0.00000000000E+00  0.19389630138E+04  0.25804858758E+04  0.17027418438E+04 0.  0.
        3    1    3    3  502    0 -0.10084640082E+03 -0.74215416610E+03  0.35599937374E+03  0.82927580883E+03  0.10100000352E+00 0. -1.
       -3    1    3    3    0  502  0.10084640082E+03  0.74215416610E+03  0.15829636401E+04  0.17512100670E+04  0.10100000352E+00 0.  1.
</event>
<event>
 5   0  0.1333546E-04  0.1702001E+04  0.7818609E-02  0.8760224E-01
        2   -1    0    0  501    0  0.00000000000E+00  0.00000000000E+00  0.20023283804E+04  0.20023283804E+04  0.25500000920E-02 0.  1.
       -2   -1    0    0    0  501  0.00000000000E+00  0.00000000000E+00 -0.36167976687E+03  0.36167976688E+03  0.25500000920E-02 0. -1.
    10030    2    1    2    0    0  0.00000000000E+00  0.00000000000E+00  0.16406486136E+04  0.23640081473E+04  0.17020007777E+04 0.  0.
        5    1    3    3  502    0 -0.28515836745E+03  0.68532518187E+03  0.24228785655E+03  0.78084018522E+03  0.46999998093E+01 0. -1.
       -5    1    3    3    0  502  0.28515836745E+03 -0.68532518187E+03  0.13983607570E+04  0.15831679621E+04  0.46999998093E+01 0.  1.
</event>
<event>
 5   0  0.6539134E-05  0.1698334E+04  0.7818609E-02  0.8762315E-01
       -1   -1    0    0    0  501  0.00000000000E+00  0.00000000000E+00  0.91271629440E+03  0.91271629442E+03  0.50400001928E-02 0. -1.
        1   -1    0    0  501    0  0.00000000000E+00  0.00000000000E+00 -0.79004240127E+03  0.79004240129E+03  0.50400001928E-02 0.  1.
    10030    2    1    2    0    0  0.00000000000E+00  0.00000000000E+00  0.12267389313E+03  0.17027586957E+04  0.16983339753E+04 0.  0.
        2    1    3    3  502    0  0.45980527114E+03 -0.56278858207E+02 -0.65220281687E+03  0.79997294429E+03  0.25500000920E-02 0.  1.
       -2    1    3    3    0  502 -0.45980527114E+03  0.56278858207E+02  0.77487671000E+03  0.90278575142E+03  0.25500000920E-02 0. -1.
</event>
<event>
 5   0  0.1393870E-04  0.1697614E+04  0.7818609E-02  0.8762726E-01
       -2   -1    0    0    0  501  0.00000000000E+00  0.00000000000E+00  0.11674892507E+04  0.11674892507E+04  0.25500000920E-02 0.  1.
        2   -1    0    0  501    0  0.00000000000E+00  0.00000000000E+00 -0.61711354790E+03  0.61711354790E+03  0.25500000920E-02 0. -1.
    10030    2    1    2    0    0  0.00000000000E+00  0.00000000000E+00  0.55037570284E+03  0.17846027986E+04  0.16976141301E+04 0.  0.
        3    1    3    3  502    0  0.99992356793E+02 -0.72960499360E+03 -0.16852022771E+03  0.75546078353E+03  0.10100000352E+00 0. -1.
       -3    1    3    3    0  502 -0.99992356793E+02  0.72960499360E+03  0.71889593055E+03  0.10291420151E+04  0.10100000352E+00 0.  1.
</event>
<event>
 5   0  0.1285639E-04  0.1688764E+04  0.7818609E-02  0.8767799E-01
       -2   -1    0    0    0  501  0.00000000000E+00  0.00000000000E+00  0.79583408629E+03  0.79583408630E+03  0.25500000920E-02 0.  1.
        2   -1    0    0  501    0  0.00000000000E+00  0.00000000000E+00 -0.89589130968E+03  0.89589130968E+03  0.25500000920E-02 0. -1.
    10030    2    1    2    0    0  0.00000000000E+00  0.00000000000E+00 -0.10005722339E+03  0.16917253960E+04  0.16887638578E+04 0.  0.
        4    1    3    3  502    0  0.24796502549E+03 -0.31736887570E+03 -0.79346859191E+03  0.88983351048E+03  0.12699999809E+01 0. -1.
       -4    1    3    3    0  502 -0.24796502549E+03  0.31736887570E+03  0.69341136852E+03  0.80189188550E+03  0.12699999809E+01 0.  1.
</event>
<event>
 5   0  0.1393870E-04  0.1699750E+04  0.7818609E-02  0.8761507E-01
        2   -1    0    0  501    0  0.00000000000E+00  0.00000000000E+00  0.14595870361E+04  0.14595870361E+04  0.25500000920E-02 0.  1.
       -2   -1    0    0    0  501  0.00000000000E+00  0.00000000000E+00 -0.49485768563E+03  0.49485768563E+03  0.25500000920E-02 0. -1.
    10030    2    1    2    0    0  0.00000000000E+00  0.00000000000E+00  0.96472935043E+03  0.19544447217E+04  0.16997504083E+04 0.  0.
        3    1    3    3  502    0  0.28993968848E+03 -0.22449312147E+03 -0.39921691109E+03  0.54206672730E+03  0.10100000352E+00 0. -1.
       -3    1    3    3    0  502 -0.28993968848E+03  0.22449312147E+03  0.13639462615E+04  0.14123779944E+04  0.10100000352E+00 0.  1.
</event>
<event>
 5   0  0.6539134E-05  0.1699388E+04  0.7818609E-02  0.8761714E-01
       -1   -1    0    0    0  501  0.00000000000E+00  0.00000000000E+00  0.83309697058E+03  0.83309697059E+03  0.50400001928E-02 0.  1.
        1   -1    0    0  501    0  0.00000000000E+00  0.00000000000E+00 -0.86662141837E+03  0.86662141839E+03  0.50400001928E-02 0. -1.
    10030    2    1    2    0    0  0.00000000000E+00  0.00000000000E+00 -0.33524447795E+02  0.16997183890E+04  0.16993877466E+04 0.  0.
        2    1    3    3  502    0  0.33288519017E+03 -0.61671999261E+03  0.46377227911E+03  0.84038135748E+03  0.25500000920E-02 0.  1.
       -2    1    3    3    0  502 -0.33288519017E+03  0.61671999261E+03 -0.49729672691E+03  0.85933703151E+03  0.25500000920E-02 0. -1.
</event>
<event>
 5   0  0.1269175E-04  0.1699291E+04  0.7818609E-02  0.8761769E-01
        2   -1    0    0  501    0  0.00000000000E+00  0.00000000000E+00  0.14211928319E+04  0.14211928319E+04  0.25500000920E-02 0.  1.
       -2   -1    0    0    0  501  0.00000000000E+00  0.00000000000E+00 -0.50795178407E+03  0.50795178408E+03  0.25500000920E-02 0. -1.
    10030    2    1    2    0    0  0.00000000000E+00  0.00000000000E+00  0.91324104787E+03  0.19291446160E+04  0.16992909515E+04 0.  0.
        2    1    3    3  502    0 -0.26733738439E+03  0.18110200218E+03 -0.43557760853E+03  0.54221311801E+03  0.25500000920E-02 0. -1.
       -2    1    3    3    0  502  0.26733738439E+03 -0.18110200218E+03  0.13488186564E+04  0.13869314980E+04  0.25500000920E-02 0.  1.
</event>
<event>
 5   0  0.6564887E-05  0.1697176E+04  0.7818609E-02  0.8762976E-01
        1   -1    0    0  501    0  0.00000000000E+00  0.00000000000E+00  0.87198805463E+03  0.87198805464E+03  0.50400001928E-02 0. -1.
       -1   -1    0    0    0  501  0.00000000000E+00  0.00000000000E+00 -0.82581635424E+03  0.82581635426E+03  0.50400001928E-02 0.  1.
    10030    2    1    2    0    0  0.00000000000E+00  0.00000000000E+00  0.46171700389E+02  0.16978044089E+04  0.16971764743E+04 0.  0.
        4    1    3    3  502    0 -0.52684966449E+03  0.25054731669E+03 -0.59338549425E+03  0.83213729910E+03  0.12699999809E+01 0.  1.
       -4    1    3    3    0  502  0.52684966449E+03 -0.25054731669E+03  0.63955719464E+03  0.86566710980E+03  0.12699999809E+01 0. -1.
</event>
<event>
 5   0  0.6564887E-05  0.1707671E+04  0.7818609E-02  0.8757001E-01
        1   -1    0    0  501    0  0.00000000000E+00  0.00000000000E+00  0.88092412244E+03  0.88092412245E+03  0.50400001928E-02 0. -1.
       -1   -1    0    0    0  501  0.00000000000E+00  0.00000000000E+00 -0.82757988139E+03  0.82757988141E+03  0.50400001928E-02 0.  1.
    10030    2    1    2    0    0  0.00000000000E+00  0.00000000000E+00  0.53344241046E+02  0.17085040039E+04  0.17076710231E+04 0.  0.
        4    1    3    3  502    0  0.50494158366E+03 -0.54284952535E+02  0.71338919079E+03  0.87569321649E+03  0.12699999809E+01 0. -1.
       -4    1    3    3    0  502 -0.50494158366E+03  0.54284952535E+02 -0.66004494974E+03  0.83281078737E+03  0.12699999809E+01 0.  1.
</event>
<event>
 5   0  0.1285639E-04  0.1669330E+04  0.7818609E-02  0.8779052E-01
       -2   -1    0    0    0  501  0.00000000000E+00  0.00000000000E+00  0.58151838196E+03  0.58151838197E+03  0.25500000920E-02 0.  1.
        2   -1    0    0  501    0  0.00000000000E+00  0.00000000000E+00 -0.11980115529E+04  0.11980115529E+04  0.25500000920E-02 0. -1.
    10030    2    1    2    0    0  0.00000000000E+00  0.00000000000E+00 -0.61649317095E+03  0.17795299349E+04  0.16693300930E+04 0.  0.
        4    1    3    3  502    0  0.17013328054E+03 -0.21328399941E+03  0.53264131841E+03  0.59845115467E+03  0.12699999809E+01 0.  1.
       -4    1    3    3    0  502 -0.17013328054E+03  0.21328399941E+03 -0.11491344894E+04  0.11810787802E+04  0.12699999809E+01 0. -1.
</event>
<event>
 5   0  0.6615842E-05  0.1701760E+04  0.7818609E-02  0.8760361E-01
        1   -1    0    0  501    0  0.00000000000E+00  0.00000000000E+00  0.11142635817E+04  0.11142635817E+04  0.50400001928E-02 0. -1.
       -1   -1    0    0    0  501  0.00000000000E+00  0.00000000000E+00 -0.64975364693E+03  0.64975364695E+03  0.50400001928E-02 0.  1.
    10030    2    1    2    0    0  0.00000000000E+00  0.00000000000E+00  0.46450993478E+03  0.17640172287E+04  0.17017600605E+04 0.  0.
        3    1    3    3  502    0 -0.54794098915E+03  0.13830135156E+03  0.89163175677E+03  0.10556390440E+04  0.10100000352E+00 0. -1.
       -3    1    3    3    0  502  0.54794098915E+03 -0.13830135156E+03 -0.42712182199E+03  0.70837818463E+03  0.10100000352E+00 0.  1.
</event>
<event>
 5   0  0.6539134E-05  0.1682287E+04  0.7818609E-02  0.8771531E-01
        1   -1    0    0  501    0  0.00000000000E+00  0.00000000000E+00  0.10997652014E+04  0.10997652014E+04  0.50400001928E-02 0.  1.
       -1   -1    0    0    0  501  0.00000000000E+00  0.00000000000E+00 -0.64333976225E+03  0.64333976227E+03  0.50400001928E-02 0. -1.
    10030    2    1    2    0    0  0.00000000000E+00  0.00000000000E+00  0.45642543915E+03  0.17431049637E+04  0.16822873515E+04 0.  0.
        2    1    3    3  502    0  0.24007099135E+03 -0.22959235693E+03 -0.57249592130E+03  0.66188995396E+03  0.25500000920E-02 0. -1.
       -2    1    3    3    0  502 -0.24007099135E+03  0.22959235693E+03  0.10289213604E+04  0.10812150097E+04  0.25500000920E-02 0.  1.
</event>
<event>
 5   0  0.1255362E-04  0.1699538E+04  0.7818609E-02  0.8761628E-01
        2   -1    0    0  501    0  0.00000000000E+00  0.00000000000E+00  0.10783291714E+04  0.10783291714E+04  0.25500000920E-02 0. -1.
       -2   -1    0    0    0  501  0.00000000000E+00  0.00000000000E+00 -0.66965426360E+03  0.66965426360E+03  0.25500000920E-02 0.  1.
    10030    2    1    2    0    0  0.00000000000E+00  0.00000000000E+00  0.40867490784E+03  0.17479834350E+04  0.16995384400E+04 0.  0.
        1    1    3    3  502    0 -0.17828650752E+03 -0.81087209973E+03  0.18044353635E+02  0.83043677640E+03  0.50400001928E-02 0.  1.
       -1    1    3    3    0  502  0.17828650752E+03  0.81087209973E+03  0.39063055420E+03  0.91754665864E+03  0.50400001928E-02 0. -1.
</event>
<event>
 5   0  0.1393870E-04  0.1696384E+04  0.7818609E-02  0.8763429E-01
       -2   -1    0    0    0  501  0.00000000000E+00  0.00000000000E+00  0.17405645734E+04  0.17405645734E+04  0.25500000920E-02 0.  1.
        2   -1    0    0  501    0  0.00000000000E+00  0.00000000000E+00 -0.41333140479E+03  0.41333140480E+03  0.25500000920E-02 0. -1.
    10030    2    1    2    0    0  0.00000000000E+00  0.00000000000E+00  0.13272331686E+04  0.21538959782E+04  0.16963843907E+04 0.  0.
        3    1    3    3  502    0 -0.81065962116E+03 -0.18576352350E+03  0.87513807682E+03  0.12072877750E+04  0.10100000352E+00 0.  1.
       -3    1    3    3    0  502  0.81065962116E+03  0.18576352350E+03  0.45209509175E+03  0.94660820313E+03  0.10100000352E+00 0. -1.
</event>
<event>
 5   0  0.1285639E-04  0.1695671E+04  0.7818609E-02  0.8763837E-01
       -2   -1    0    0    0  501  0.00000000000E+00  0.00000000000E+00  0.77375695223E+03  0.77375695224E+03  0.25500000920E-02 0.  1.
        2   -1    0    0  501    0  0.00000000000E+00  0.00000000000E+00 -0.92900609030E+03  0.92900609031E+03  0.25500000920E-02 0. -1.
    10030    2    1    2    0    0  0.00000000000E+00  0.00000000000E+00 -0.15524913807E+03  0.17027630425E+04  0.16956708655E+04 0.  0.
        4    1    3    3  502    0  0.14409051578E+03  0.31526540109E+03  0.69934860982E+03  0.78054112052E+03  0.12699999809E+01 0.  1.
       -4    1    3    3    0  502 -0.14409051578E+03 -0.31526540109E+03 -0.85459774789E+03  0.92222192203E+03  0.12699999809E+01 0. -1.
</event>
<event>
 5   0  0.6601906E-05  0.1703065E+04  0.7818609E-02  0.8759618E-01
       -1   -1    0    0    0  501  0.00000000000E+00  0.00000000000E+00  0.50807178882E+03  0.50807178885E+03  0.50400001928E-02 0. -1.
        1   -1    0    0  501    0  0.00000000000E+00  0.00000000000E+00 -0.14271761250E+04  0.14271761250E+04  0.50400001928E-02 0.  1.
    10030    2    1    2    0    0  0.00000000000E+00  0.00000000000E+00 -0.91910433618E+03  0.19352479139E+04  0.17030653855E+04 0.  0.
        1    1    3    3  502    0  0.27114049939E+03  0.25107492332E+03  0.41220947652E+03  0.55359953043E+03  0.50400001928E-02 0. -1.
       -1    1    3    3    0  502 -0.27114049939E+03 -0.25107492332E+03 -0.13313138127E+04  0.13816483834E+04  0.50400001928E-02 0.  1.
</event>
<event>
 5   0  0.1285639E-04  0.1698222E+04  0.7818609E-02  0.8762379E-01
       -2   -1    0    0    0  501  0.00000000000E+00  0.00000000000E+00  0.55446685059E+03  0.55446685059E+03  0.25500000920E-02 0. -1.
        2   -1    0    0  501    0  0.00000000000E+00  0.00000000000E+00 -0.13003300121E+04  0.13003300121E+04  0.25500000920E-02 0.  1.
    10030    2    1    2    0    0  0.00000000000E+00  0.00000000000E+00 -0.74586316150E+03  0.18547968627E+04  0.16982224666E+04 0.  0.
        4    1    3    3  502    0  0.41734313347E+03 -0.31517009546E+03 -0.11035472301E+04  0.12211984205E+04  0.12699999809E+01 0.  1.
       -4    1    3    3    0  502 -0.41734313347E+03  0.31517009546E+03  0.35768406863E+03  0.63359844221E+03  0.12699999809E+01 0. -1.
</event>
<event>
 5   0  0.6615842E-05  0.1666037E+04  0.7818609E-02  0.8780975E-01
       -1   -1    0    0    0  501  0.00000000000E+00  0.00000000000E+00  0.55329216432E+03  0.55329216434E+03  0.50400001928E-02 0. -1.
        1   -1    0    0  501    0  0.00000000000E+00  0.00000000000E+00 -0.12541659182E+04  0.12541659182E+04  0.50400001928E-02 0.  1.
    10030    2    1    2    0    0  0.00000000000E+00  0.00000000000E+00 -0.70087375388E+03  0.18074580825E+04  0.16660374249E+04 0.  0.
        3    1    3    3  502    0 -0.41175466186E+03 -0.16512651680E+03 -0.11153469585E+04  0.12003364179E+04  0.10100000352E+00 0.  1.
       -3    1    3    3    0  502  0.41175466186E+03  0.16512651680E+03  0.41447320462E+03  0.60712166464E+03  0.10100000352E+00 0. -1.
</event>
<event>
 5   0  0.1393870E-04  0.1700784E+04  0.7818609E-02  0.8760918E-01
       -2   -1    0    0    0  501  0.00000000000E+00  0.00000000000E+00  0.54334920543E+03  0.54334920544E+03  0.25500000920E-02 0.  1.
        2   -1    0    0  501    0  0.00000000000E+00  0.00000000000E+00 -0.13309418562E+04  0.13309418562E+04  0.25500000920E-02 0. -1.
    10030    2    1    2    0    0  0.00000000000E+00  0.00000000000E+00 -0.78759265074E+03  0.18742910616E+04  0.17007835842E+04 0.  0.
        3    1    3    3  502    0 -0.75903778135E+03 -0.18050387043E+03 -0.20985386706E+02  0.78048728203E+03  0.10100000352E+00 0.  1.
       -3    1    3    3    0  502  0.75903778135E+03  0.18050387043E+03 -0.76660726404E+03  0.10938037796E+04  0.10100000352E+00 0. -1.
</event>
<event>
 5   0  0.1393870E-04  0.1694756E+04  0.7818609E-02  0.8764361E-01
       -2   -1    0    0    0  501  0.00000000000E+00  0.00000000000E+00  0.64184776364E+03  0.64184776365E+03  0.25500000920E-02 0. -1.
        2   -1    0    0  501    0  0.00000000000E+00  0.00000000000E+00 -0.11187226712E+04  0.11187226712E+04  0.25500000920E-02 0.  1.
    10030    2    1    2    0    0  0.00000000000E+00  0.00000000000E+00 -0.47687490759E+03  0.17605704349E+04  0.16947562004E+04 0.  0.
        3    1    3    3  502    0 -0.33155922890E+03 -0.74034766070E+03 -0.49290611005E+03  0.94921158047E+03  0.10100000352E+00 0.  1.
       -3    1    3    3    0  502  0.33155922890E+03  0.74034766070E+03  0.16031202463E+02  0.81135885441E+03  0.10100000352E+00 0. -1.
</event>
<event>
 5   0  0.6601906E-05  0.1709580E+04  0.7818609E-02  0.8755919E-01
        1   -1    0    0  501    0  0.00000000000E+00  0.00000000000E+00  0.14821755568E+04  0.14821755568E+04  0.50400001928E-02 0.  1.
       -1   -1    0    0    0  501  0.00000000000E+00  0.00000000000E+00 -0.49296867523E+03  0.49296867526E+03  0.50400001928E-02 0. -1.
    10030    2    1    2    0    0  0.00000000000E+00  0.00000000000E+00  0.98920688159E+03  0.19751442321E+04  0.17095802067E+04 0.  0.
        1    1    3    3  502    0 -0.23972603218E+03  0.50082648901E+03  0.12454584114E+04  0.13636210607E+04  0.50400001928E-02 0.  1.
       -1    1    3    3    0  502  0.23972603218E+03 -0.50082648901E+03 -0.25625152982E+03  0.61152317140E+03  0.50400001928E-02 0. -1.
</event>
<event>
 5   0  0.6601906E-05  0.1700815E+04  0.7818609E-02  0.8760900E-01
        1   -1    0    0  501    0  0.00000000000E+00  0.00000000000E+00  0.13441753975E+04  0.13441753975E+04  0.50400001928E-02 0. -1.
       -1   -1    0    0    0  501  0.00000000000E+00  0.00000000000E+00 -0.53801969023E+03  0.53801969025E+03  0.50400001928E-02 0.  1.
    10030    2    1    2    0    0  0.00000000000E+00  0.00000000000E+00  0.80615570727E+03  0.18821950878E+04  0.17008149000E+04 0.  0.
        1    1    3    3  502    0  0.24518914270E+02  0.84972157007E+03  0.37677540817E+03  0.92983204506E+03  0.50400001928E-02 0.  1.
       -1    1    3    3    0  502 -0.24518914270E+02 -0.84972157007E+03  0.42938029910E+03  0.95236304269E+03  0.50400001928E-02 0. -1.
</event>
<event>
 5   0  0.1255362E-04  0.1700332E+04  0.7818609E-02  0.8761175E-01
        2   -1    0    0  501    0  0.00000000000E+00  0.00000000000E+00  0.11598931559E+04  0.11598931559E+04  0.25500000920E-02 0. -1.
       -2   -1    0    0    0  501  0.00000000000E+00  0.00000000000E+00 -0.62314552090E+03  0.62314552091E+03  0.25500000920E-02 0.  1.
    10030    2    1    2    0    0  0.00000000000E+00  0.00000000000E+00  0.53674763503E+03  0.17830386768E+04  0.17003319968E+04 0.  0.
        1    1    3    3  502    0 -0.18643584801E+03 -0.19351875276E+03  0.11141890818E+04  0.11461348713E+04  0.50400001928E-02 0. -1.
       -1    1    3    3    0  502  0.18643584801E+03  0.19351875276E+03 -0.57744144677E+03  0.63690380558E+03  0.50400001928E-02 0.  1.
</event>
<event>
 5   0  0.6564887E-05  0.1705267E+04  0.7818609E-02  0.8758366E-01
        1   -1    0    0  501    0  0.00000000000E+00  0.00000000000E+00  0.18918210458E+04  0.18918210458E+04  0.50400001928E-02 0. -1.
       -1   -1    0    0    0  501  0.00000000000E+00  0.00000000000E+00 -0.38427749689E+03  0.38427749692E+03  0.50400001928E-02 0.  1.
    10030    2    1    2    0    0  0.00000000000E+00  0.00000000000E+00  0.15075435490E+04  0.22760985428E+04  0.17052674349E+04 0.  0.
        4    1    3    3  502    0 -0.27292532781E+03  0.38512767447E+03 -0.19396455489E+03  0.51032873881E+03  0.12699999809E+01 0.  1.
       -4    1    3    3    0  502  0.27292532781E+03 -0.38512767447E+03  0.17015081038E+04  0.17657698040E+04  0.12699999809E+01 0. -1.
</event>
<event>
 5   0  0.1333546E-04  0.1701087E+04  0.7818609E-02  0.8760744E-01
       -2   -1    0    0    0  501  0.00000000000E+00  0.00000000000E+00  0.77639297110E+03  0.77639297111E+03  0.25500000920E-02 0.  1.
        2   -1    0    0  501    0  0.00000000000E+00  0.00000000000E+00 -0.93177618214E+03  0.93177618215E+03  0.25500000920E-02 0. -1.
    10030    2    1    2    0    0  0.00000000000E+00  0.00000000000E+00 -0.15538321104E+03  0.17081691533E+04  0.17010872740E+04 0.  0.
        5    1    3    3  502    0  0.29909090409E+03 -0.39536252275E+03  0.61629737753E+03  0.79095602966E+03  0.46999998093E+01 0.  1.
       -5    1    3    3    0  502 -0.29909090409E+03  0.39536252275E+03 -0.77168058857E+03  0.91721312359E+03  0.46999998093E+01 0. -1.
</event>
<event>
 5   0  0.6539134E-05  0.1700271E+04  0.7818609E-02  0.8761210E-01
       -1   -1    0    0    0  501  0.00000000000E+00  0.00000000000E+00  0.56545121720E+03  0.56545121722E+03  0.50400001928E-02 0.  1.
        1   -1    0    0  501    0  0.00000000000E+00  0.00000000000E+00 -0.12781476513E+04  0.12781476513E+04  0.50400001928E-02 0. -1.
    10030    2    1    2    0    0  0.00000000000E+00  0.00000000000E+00 -0.71269643412E+03  0.18435988685E+04  0.17002707375E+04 0.  0.
        2    1    3    3  502    0 -0.78531671280E+02 -0.16207907426E+02  0.56134156562E+03  0.56703992184E+03  0.25500000920E-02 0.  1.
       -2    1    3    3    0  502  0.78531671280E+02  0.16207907426E+02 -0.12740379997E+04  0.12765589467E+04  0.25500000920E-02 0. -1.
</event>
<event>
 5   0  0.6834837E-05  0.1693714E+04  0.7818609E-02  0.8764958E-01
        1   -1    0    0  501    0  0.00000000000E+00  0.00000000000E+00  0.16859471406E+04  0.16859471406E+04  0.50400001928E-02 0.  1.
       -1   -1    0    0    0  501  0.00000000000E+00  0.00000000000E+00 -0.42537909659E+03  0.42537909662E+03  0.50400001928E-02 0. -1.
    10030    2    1    2    0    0  0.00000000000E+00  0.00000000000E+00  0.12605680440E+04  0.21113262372E+04  0.16937138738E+04 0.  0.
        5    1    3    3  502    0 -0.64084741727E+03  0.44059265078E+03  0.10480925135E+04  0.13051158198E+04  0.46999998093E+01 0.  1.
       -5    1    3    3    0  502  0.64084741727E+03 -0.44059265078E+03  0.21247553050E+03  0.80621041745E+03  0.46999998093E+01 0. -1.
</event>
<event>
 5   0  0.6601906E-05  0.1690300E+04  0.7818609E-02  0.8766916E-01
        1   -1    0    0  501    0  0.00000000000E+00  0.00000000000E+00  0.12525317863E+04  0.12525317864E+04  0.50400001928E-02 0. -1.
       -1   -1    0    0    0  501  0.00000000000E+00  0.00000000000E+00 -0.57026790224E+03  0.57026790226E+03  0.50400001928E-02 0.  1.
    10030    2    1    2    0    0  0.00000000000E+00  0.00000000000E+00  0.68226388411E+03  0.18227996886E+04  0.16903001796E+04 0.  0.
        1    1    3    3  502    0 -0.20092921903E+02  0.84241844354E+03  0.41107033800E+03  0.93757740071E+03  0.50400001928E-02 0.  1.
       -1    1    3    3    0  502  0.20092921903E+02 -0.84241844354E+03  0.27119354611E+03  0.88522228790E+03  0.50400001928E-02 0. -1.
</event>
<event>
 5   0  0.1333546E-04  0.1650622E+04  0.7818609E-02  0.8790038E-01
       -2   -1    0    0    0  501  0.00000000000E+00  0.00000000000E+00  0.88086784956E+03  0.88086784957E+03  0.25500000920E-02 0. -1.
        2   -1    0    0  501    0  0.00000000000E+00  0.00000000000E+00 -0.77325829936E+03  0.77325829937E+03  0.25500000920E-02 0.  1.
    10030    2    1    2    0    0  0.00000000000E+00  0.00000000000E+00  0.10760955020E+03  0.16541261489E+04  0.16506221558E+04 0.  0.
        5    1    3    3  502    0  0.76721635188E+03  0.10470241284E+03  0.33995034566E+03  0.84567833919E+03  0.46999998093E+01 0. -1.
       -5    1    3    3    0  502 -0.76721635188E+03 -0.10470241284E+03 -0.23234079547E+03  0.80844780975E+03  0.46999998093E+01 0.  1.
</event>
<event>
 5   0  0.6539134E-05  0.1707967E+04  0.7818609E-02  0.8756833E-01
        1   -1    0    0  501    0  0.00000000000E+00  0.00000000000E+00  0.55039056333E+03  0.55039056335E+03  0.50400001928E-02 0. -1.
       -1   -1    0    0    0  501  0.00000000000E+00  0.00000000000E+00 -0.13250374355E+04  0.13250374355E+04  0.50400001928E-02 0.  1.
    10030    2    1    2    0    0  0.00000000000E+00  0.00000000000E+00 -0.77464687217E+03  0.18754279989E+04  0.17079673306E+04 0.  0.
        2    1    3    3  502    0 -0.13676622689E+03  0.41944760813E+03 -0.11902102465E+04  0.12693469689E+04  0.25500000920E-02 0.  1.
       -2    1    3    3    0  502  0.13676622689E+03 -0.41944760813E+03  0.41556337428E+03  0.60608102993E+03  0.25500000920E-02 0. -1.
</event>
<event>
 5   0  0.6615842E-05  0.1710770E+04  0.7818609E-02  0.8755246E-01
        1   -1    0    0  501    0  0.00000000000E+00  0.00000000000E+00  0.13233739764E+04  0.13233739764E+04  0.50400001928E-02 0. -1.
       -1   -1    0    0    0  501  0.00000000000E+00  0.00000000000E+00 -0.55289246085E+03  0.55289246087E+03  0.50400001928E-02 0.  1.
    10030    2    1    2    0    0  0.00000000000E+00  0.00000000000E+00  0.77048151557E+03  0.18762664373E+04  0.17107699956E+04 0.  0.
        3    1    3    3  502    0  0.12933049982E+03 -0.57872210768E+03 -0.29086759131E+03  0.66049195451E+03  0.10100000352E+00 0.  1.
       -3    1    3    3    0  502 -0.12933049982E+03  0.57872210768E+03  0.10613491069E+04  0.12157744828E+04  0.10100000352E+00 0. -1.
</event>
<event>
 5   0  0.1393870E-04  0.1757721E+04  0.7818609E-02  0.8729112E-01
        2   -1    0    0  501    0  0.00000000000E+00  0.00000000000E+00  0.26747615205E+04  0.26747615205E+04  0.25500000920E-02 0.  1.
       -2   -1    0    0    0  501  0.00000000000E+00  0.00000000000E+00 -0.28877179708E+03  0.28877179709E+03  0.25500000920E-02 0. -1.
    10030    2    1    2    0    0  0.00000000000E+00  0.00000000000E+00  0.23859897234E+04  0.29635333176E+04  0.17577209005E+04 0.  0.
        3    1    3    3  502    0 -0.54650516377E+03 -0.30978214904E+03  0.22292566779E+04  0.23160781981E+04  0.10100000352E+00 0.  1.
       -3    1    3    3    0  502  0.54650516377E+03  0.30978214904E+03  0.15673304551E+03  0.64745511941E+03  0.10100000352E+00 0. -1.
</event>
<event>
 5   0  0.1333546E-04  0.1704747E+04  0.7818609E-02  0.8758662E-01
        2   -1    0    0  501    0  0.00000000000E+00  0.00000000000E+00  0.25083867813E+04  0.25083867813E+04  0.25500000920E-02 0. -1.
       -2   -1    0    0    0  501  0.00000000000E+00  0.00000000000E+00 -0.28964442272E+03  0.28964442273E+03  0.25500000920E-02 0.  1.
    10030    2    1    2    0    0  0.00000000000E+00  0.00000000000E+00  0.22187423586E+04  0.27980312041E+04  0.17047465985E+04 0.  0.
        5    1    3    3  502    0  0.69849358535E+03  0.17414112919E+03  0.18584664824E+04  0.19930223727E+04  0.46999998093E+01 0. -1.
       -5    1    3    3    0  502 -0.69849358535E+03 -0.17414112919E+03  0.36027587619E+03  0.80500883139E+03  0.46999998093E+01 0.  1.
</event>
<event>
 5   0  0.1255362E-04  0.1697685E+04  0.7818609E-02  0.8762686E-01
       -2   -1    0    0    0  501  0.00000000000E+00  0.00000000000E+00  0.36455921950E+03  0.36455921951E+03  0.25500000920E-02 0. -1.
        2   -1    0    0  501    0  0.00000000000E+00  0.00000000000E+00 -0.19764507158E+04  0.19764507158E+04  0.25500000920E-02 0.  1.
    10030    2    1    2    0    0  0.00000000000E+00  0.00000000000E+00 -0.16118914963E+04  0.23410099353E+04  0.16976846943E+04 0.  0.
        1    1    3    3  502    0 -0.48263089925E+03 -0.30955603489E+03  0.57162029939E+02  0.57621612381E+03  0.50400001928E-02 0. -1.
       -1    1    3    3    0  502  0.48263089925E+03  0.30955603489E+03 -0.16690535262E+04  0.17647938115E+04  0.50400001928E-02 0.  1.
</event>
<event>
 5   0  0.6564887E-05  0.1700273E+04  0.7818609E-02  0.8761209E-01
        1   -1    0    0  501    0  0.00000000000E+00  0.00000000000E+00  0.75394163849E+03  0.75394163851E+03  0.50400001928E-02 0. -1.
       -1   -1    0    0    0  501  0.00000000000E+00  0.00000000000E+00 -0.95860434080E+03  0.95860434081E+03  0.50400001928E-02 0.  1.
    10030    2    1    2    0    0  0.00000000000E+00  0.00000000000E+00 -0.20466270231E+03  0.17125459793E+04  0.17002725986E+04 0.  0.
        4    1    3    3  502    0  0.48707866471E+02 -0.18262817768E+02 -0.95699889036E+03  0.95841247687E+03  0.12699999809E+01 0.  1.
       -4    1    3    3    0  502 -0.48707866471E+02  0.18262817768E+02  0.75233618805E+03  0.75413350245E+03  0.12699999809E+01 0. -1.
</event>
<event>
 5   0  0.6834837E-05  0.1706667E+04  0.7818609E-02  0.8757571E-01
       -1   -1    0    0    0  501  0.00000000000E+00  0.00000000000E+00  0.16425331413E+04  0.16425331413E+04  0.50400001928E-02 0. -1.
        1   -1    0    0  501    0  0.00000000000E+00  0.00000000000E+00 -0.44332623882E+03  0.44332623885E+03  0.50400001928E-02 0.  1.
    10030    2    1    2    0    0  0.00000000000E+00  0.00000000000E+00  0.11992069024E+04  0.20858593801E+04  0.17066669736E+04 0.  0.
        5    1    3    3  502    0 -0.73657003150E+03  0.86108277830E+02  0.11155411772E+04  0.13395537521E+04  0.46999998093E+01 0. -1.
       -5    1    3    3    0  502  0.73657003150E+03 -0.86108277830E+02  0.83665725251E+02  0.74630562801E+03  0.46999998093E+01 0.  1.
</event>
<event>
 5   0  0.6601906E-05  0.1695592E+04  0.7818609E-02  0.8763883E-01
        1   -1    0    0  501    0  0.00000000000E+00  0.00000000000E+00  0.13834400721E+04  0.13834400722E+04  0.50400001928E-02 0. -1.
       -1   -1    0    0    0  501  0.00000000000E+00  0.00000000000E+00 -0.51954389695E+03  0.51954389697E+03  0.50400001928E-02 0.  1.
    10030    2    1    2    0    0  0.00000000000E+00  0.00000000000E+00  0.86389617519E+03  0.19029839691E+04  0.16955917508E+04 0.  0.
        1    1    3    3  502    0 -0.20326022889E+03  0.25206760871E+03  0.13113034907E+04  0.13506922835E+04  0.50400001928E-02 0. -1.
       -1    1    3    3    0  502  0.20326022889E+03 -0.25206760871E+03 -0.44740731550E+03  0.55229168561E+03  0.50400001928E-02 0.  1.
</event>
<event>
 5   0  0.1269175E-04  0.1698229E+04  0.7818609E-02  0.8762375E-01
       -2   -1    0    0    0  501  0.00000000000E+00  0.00000000000E+00  0.78953197517E+03  0.78953197518E+03  0.25500000920E-02 0. -1.
        2   -1    0    0  501    0  0.00000000000E+00  0.00000000000E+00 -0.91319335077E+03  0.91319335077E+03  0.25500000920E-02 0.  1.
    10030    2    1    2    0    0  0.00000000000E+00  0.00000000000E+00 -0.12366137559E+03  0.17027253260E+04  0.16982289009E+04 0.  0.
        2    1    3    3  502    0  0.36339853446E+03  0.22248341287E+03  0.67457838546E+03  0.79788054369E+03  0.25500000920E-02 0. -1.
       -2    1    3    3    0  502 -0.36339853446E+03 -0.22248341287E+03 -0.79823976106E+03  0.90484478226E+03  0.25500000920E-02 0.  1.
</event>
<event>
 5   0  0.6615842E-05  0.1703009E+04  0.7818609E-02  0.8759650E-01
       -1   -1    0    0    0  501  0.00000000000E+00  0.00000000000E+00  0.87387571817E+03  0.87387571819E+03  0.50400001928E-02 0.  1.
        1   -1    0    0  501    0  0.00000000000E+00  0.00000000000E+00 -0.82970614737E+03  0.82970614738E+03  0.50400001928E-02 0. -1.
    10030    2    1    2    0    0  0.00000000000E+00  0.00000000000E+00  0.44169570806E+02  0.17035818656E+04  0.17030091667E+04 0.  0.
        3    1    3    3  502    0  0.54614617613E+03 -0.26995217001E+03 -0.57301881556E+03  0.83636140094E+03  0.10100000352E+00 0. -1.
       -3    1    3    3    0  502 -0.54614617613E+03  0.26995217001E+03  0.61718838637E+03  0.86722046463E+03  0.10100000352E+00 0.  1.
</event>
<event>
 5   0  0.6539134E-05  0.1695337E+04  0.7818609E-02  0.8764028E-01
        1   -1    0    0  501    0  0.00000000000E+00  0.00000000000E+00  0.17359260612E+04  0.17359260612E+04  0.50400001928E-02 0.  1.
       -1   -1    0    0    0  501  0.00000000000E+00  0.00000000000E+00 -0.41392440759E+03  0.41392440763E+03  0.50400001928E-02 0. -1.
    10030    2    1    2    0    0  0.00000000000E+00  0.00000000000E+00  0.13220016536E+04  0.21498504688E+04  0.16953373311E+04 0.  0.
        2    1    3    3  502    0 -0.59370393610E+03 -0.12692679337E+03 -0.89158493174E+02  0.61363182083E+03  0.25500000920E-02 0. -1.
       -2    1    3    3    0  502  0.59370393610E+03  0.12692679337E+03  0.14111601468E+04  0.15362186480E+04  0.25500000920E-02 0.  1.
</event>
<event>
 5   0  0.6564887E-05  0.1714321E+04  0.7818609E-02  0.8753238E-01
       -1   -1    0    0    0  501  0.00000000000E+00  0.00000000000E+00  0.40127033178E+03  0.40127033181E+03  0.50400001928E-02 0. -1.
        1   -1    0    0  501    0  0.00000000000E+00  0.00000000000E+00 -0.18309957529E+04  0.18309957529E+04  0.50400001928E-02 0.  1.
    10030    2    1    2    0    0  0.00000000000E+00  0.00000000000E+00 -0.14297254211E+04  0.22322660847E+04  0.17143211756E+04 0.  0.
        4    1    3    3  502    0 -0.29915050856E+03 -0.21112107905E+03  0.29431570913E+03  0.46977280288E+03  0.12699999809E+01 0. -1.
       -4    1    3    3    0  502  0.29915050856E+03  0.21112107905E+03 -0.17240411302E+04  0.17624932818E+04  0.12699999809E+01 0.  1.
</event>
<event>
 5   0  0.1255362E-04  0.1700548E+04  0.7818609E-02  0.8761052E-01
       -2   -1    0    0    0  501  0.00000000000E+00  0.00000000000E+00  0.61838195758E+03  0.61838195759E+03  0.25500000920E-02 0. -1.
        2   -1    0    0  501    0  0.00000000000E+00  0.00000000000E+00 -0.11691257742E+04  0.11691257742E+04  0.25500000920E-02 0.  1.
    10030    2    1    2    0    0  0.00000000000E+00  0.00000000000E+00 -0.55074381660E+03  0.17875077318E+04  0.17005484820E+04 0.  0.
        1    1    3    3  502    0 -0.80888187335E+03 -0.22536779475E+03 -0.13479545785E+03  0.85044126395E+03  0.50400001928E-02 0. -1.
       -1    1    3    3    0  502  0.80888187335E+03  0.22536779475E+03 -0.41594835875E+03  0.93706646782E+03  0.50400001928E-02 0.  1.
</event>
<event>
 5   0  0.1393870E-04  0.1699947E+04  0.7818609E-02  0.8761395E-01
        2   -1    0    0  501    0  0.00000000000E+00  0.00000000000E+00  0.71392921290E+03  0.71392921290E+03  0.25500000920E-02 0.  1.
       -2   -1    0    0    0  501  0.00000000000E+00  0.00000000000E+00 -0.10119420508E+04  0.10119420508E+04  0.25500000920E-02 0. -1.
    10030    2    1    2    0    0  0.00000000000E+00  0.00000000000E+00 -0.29801283795E+03  0.17258712638E+04  0.16999470484E+04 0.  0.
        3    1    3    3  502    0  0.59857122860E+02 -0.26373956904E+03 -0.96709482073E+03  0.10041981069E+04  0.10100000352E+00 0. -1.
       -3    1    3    3    0  502 -0.59857122860E+02  0.26373956904E+03  0.66908198278E+03  0.72167315685E+03  0.10100000352E+00 0.  1.
</event>
<event>
 5   0  0.6539134E-05  0.1739254E+04  0.7818609E-02  0.8739287E-01
        1   -1    0    0  501    0  0.00000000000E+00  0.00000000000E+00  0.63005906110E+03  0.63005906112E+03  0.50400001928E-02 0. -1.
       -1   -1    0    0    0  501  0.00000000000E+00  0.00000000000E+00 -0.12002866328E+04  0.12002866328E+04  0.50400001928E-02 0.  1.
    10030    2    1    2    0    0  0.00000000000E+00  0.00000000000E+00 -0.57022757166E+03  0.18303456939E+04  0.17392544022E+04 0.  0.
        2    1    3    3  502    0  0.23728271969E+03  0.82110883986E+03 -0.11631141770E+03  0.86258400278E+03  0.25500000920E-02 0. -1.
       -2    1    3    3    0  502 -0.23728271969E+03 -0.82110883986E+03 -0.45391615396E+03  0.96776169112E+03  0.25500000920E-02 0.  1.
</event>
<event>
 5   0  0.6834837E-05  0.1704081E+04  0.7818609E-02  0.8759040E-01
       -1   -1    0    0    0  501  0.00000000000E+00  0.00000000000E+00  0.10132960156E+04  0.10132960156E+04  0.50400001928E-02 0. -1.
        1   -1    0    0  501    0  0.00000000000E+00  0.00000000000E+00 -0.71644712429E+03  0.71644712431E+03  0.50400001928E-02 0.  1.
    10030    2    1    2    0    0  0.00000000000E+00  0.00000000000E+00  0.29684889126E+03  0.17297431399E+04  0.17040810033E+04 0.  0.
        5    1    3    3  502    0  0.16052088336E+03 -0.29602111016E+03 -0.64602102750E+03  0.72853325910E+03  0.46999998093E+01 0.  1.
       -5    1    3    3    0  502 -0.16052088336E+03  0.29602111016E+03  0.94286991876E+03  0.10012098808E+04  0.46999998093E+01 0. -1.
</event>
<event>
 5   0  0.1333546E-04  0.1695227E+04  0.7818609E-02  0.8764091E-01
       -2   -1    0    0    0  501  0.00000000000E+00  0.00000000000E+00  0.51192203207E+03  0.51192203207E+03  0.25500000920E-02 0.  1.
        2   -1    0    0  501    0  0.00000000000E+00  0.00000000000E+00 -0.14034331497E+04  0.14034331497E+04  0.25500000920E-02 0. -1.
    10030    2    1    2    0    0  0.00000000000E+00  0.00000000000E+00 -0.89151111760E+03  0.19153551817E+04  0.16952266513E+04 0.  0.
        5    1    3    3  502    0  0.20506977563E+03 -0.61327825287E+03 -0.10648715878E+04  0.12458480713E+04  0.46999998093E+01 0. -1.
       -5    1    3    3    0  502 -0.20506977563E+03  0.61327825287E+03  0.17336047017E+03  0.66950711045E+03  0.46999998093E+01 0.  1.
</event>
<event>
 5   0  0.1255362E-04  0.1797446E+04  0.7818609E-02  0.8707659E-01
        2   -1    0    0  501    0  0.00000000000E+00  0.00000000000E+00  0.10080280394E+04  0.10080280394E+04  0.25500000920E-02 0.  1.
       -2   -1    0    0    0  501  0.00000000000E+00  0.00000000000E+00 -0.80127073509E+03  0.80127073510E+03  0.25500000920E-02 0. -1.
    10030    2    1    2    0    0  0.00000000000E+00  0.00000000000E+00  0.20675730432E+03  0.18092987745E+04  0.17974463754E+04 0.  0.
        1    1    3    3  502    0 -0.46881098876E+03  0.74961820705E+03 -0.58905310604E+02  0.88610441550E+03  0.50400001928E-02 0. -1.
       -1    1    3    3    0  502  0.46881098876E+03 -0.74961820705E+03  0.26566261492E+03  0.92319435902E+03  0.50400001928E-02 0.  1.
</event>
<event>
 5   0  0.4720875E-05  0.1713207E+04  0.7818609E-02  0.8753867E-01
       -3   -1    0    0    0  501  0.00000000000E+00  0.00000000000E+00  0.91861712819E+03  0.91861713374E+03  0.10100000352E+00 0. -1.
        3   -1    0    0  501    0  0.00000000000E+00  0.00000000000E+00 -0.79877642709E+03  0.79877643348E+03  0.10100000352E+00 0.  1.
    10030    2    1    2    0    0  0.00000000000E+00  0.00000000000E+00  0.11984070110E+03  0.17173935672E+04  0.17132071886E+04 0.  0.
        4    1    3    3  502    0 -0.43111197129E+02 -0.46085760693E+02  0.91628276558E+03  0.91845424059E+03  0.12699999809E+01 0. -1.
       -4    1    3    3    0  502  0.43111197129E+02  0.46085760693E+02 -0.79644206448E+03  0.79893932663E+03  0.12699999809E+01 0.  1.
</event>
<event>
 5   0  0.6564887E-05  0.1711172E+04  0.7818609E-02  0.8755018E-01
        1   -1    0    0  501    0  0.00000000000E+00  0.00000000000E+00  0.86149612768E+03  0.86149612770E+03  0.50400001928E-02 0. -1.
       -1   -1    0    0    0  501  0.00000000000E+00  0.00000000000E+00 -0.84971671211E+03  0.84971671213E+03  0.50400001928E-02 0.  1.
    10030    2    1    2    0    0  0.00000000000E+00  0.00000000000E+00  0.11779415570E+02  0.17112128398E+04  0.17111722966E+04 0.  0.
        4    1    3    3  502    0  0.66807982808E+03 -0.48379141855E+03 -0.22136279059E+03  0.85404208989E+03  0.12699999809E+01 0.  1.
       -4    1    3    3    0  502 -0.66807982808E+03  0.48379141855E+03  0.23314220616E+03  0.85717074994E+03  0.12699999809E+01 0. -1.
</event>
<event>
 5   0  0.1285639E-04  0.1705770E+04  0.7818609E-02  0.8758081E-01
       -2   -1    0    0    0  501  0.00000000000E+00  0.00000000000E+00  0.73993247822E+03  0.73993247822E+03  0.25500000920E-02 0. -1.
        2   -1    0    0  501    0  0.00000000000E+00  0.00000000000E+00 -0.98307956738E+03  0.98307956739E+03  0.25500000920E-02 0.  1.
    10030    2    1    2    0    0  0.00000000000E+00  0.00000000000E+00 -0.24314708916E+03  0.17230120456E+04  0.17057696217E+04 0.  0.
        4    1    3    3  502    0 -0.75424568019E+03  0.39777070932E+03 -0.13915071778E+03  0.86398646890E+03  0.12699999809E+01 0. -1.
       -4    1    3    3    0  502  0.75424568019E+03 -0.39777070932E+03 -0.10399637139E+03  0.85902557671E+03  0.12699999809E+01 0.  1.
</event>
<event>
 5   0  0.1255362E-04  0.1700064E+04  0.7818609E-02  0.8761328E-01
       -2   -1    0    0    0  501  0.00000000000E+00  0.00000000000E+00  0.14684741084E+04  0.14684741084E+04  0.25500000920E-02 0. -1.
        2   -1    0    0  501    0  0.00000000000E+00  0.00000000000E+00 -0.49204431098E+03  0.49204431099E+03  0.25500000920E-02 0.  1.
    10030    2    1    2    0    0  0.00000000000E+00  0.00000000000E+00  0.97642979744E+03  0.19605184194E+04  0.17000639175E+04 0.  0.
        1    1    3    3  502    0  0.21825514244E+03 -0.69665776059E+03  0.99033769741E+03  0.12303398301E+04  0.50400001928E-02 0. -1.
       -1    1    3    3    0  502 -0.21825514244E+03  0.69665776059E+03 -0.13907899964E+02  0.73017858932E+03  0.50400001928E-02 0.  1.
</event>
<event>
 5   0  0.1333546E-04  0.1700740E+04  0.7818609E-02  0.8760942E-01
        2   -1    0    0  501    0  0.00000000000E+00  0.00000000000E+00  0.74183892149E+03  0.74183892149E+03  0.25500000920E-02 0.  1.
       -2   -1    0    0    0  501  0.00000000000E+00  0.00000000000E+00 -0.97477974396E+03  0.97477974396E+03  0.25500000920E-02 0. -1.
    10030    2    1    2    0    0  0.00000000000E+00  0.00000000000E+00 -0.23294082247E+03  0.17166186655E+04  0.17007404904E+04 0.  0.
        5    1    3    3  502    0 -0.20605825032E+03 -0.35219841265E+03 -0.86949444770E+03  0.96049279486E+03  0.46999998093E+01 0. -1.
       -5    1    3    3    0  502  0.20605825032E+03  0.35219841265E+03  0.63655362523E+03  0.75612587060E+03  0.46999998093E+01 0.  1.
</event>
<event>
 5   0  0.1333546E-04  0.1683513E+04  0.7818609E-02  0.8770824E-01
       -2   -1    0    0    0  501  0.00000000000E+00  0.00000000000E+00  0.85719613137E+03  0.85719613138E+03  0.25500000920E-02 0. -1.
        2   -1    0    0  501    0  0.00000000000E+00  0.00000000000E+00 -0.82659476944E+03  0.82659476944E+03  0.25500000920E-02 0.  1.
    10030    2    1    2    0    0  0.00000000000E+00  0.00000000000E+00  0.30601361936E+02  0.16837909008E+04  0.16835128019E+04 0.  0.
        5    1    3    3  502    0 -0.55035217452E+03 -0.33468189643E+03 -0.52666728747E+03  0.83204567752E+03  0.46999998093E+01 0.  1.
       -5    1    3    3    0  502  0.55035217452E+03  0.33468189643E+03  0.55726864940E+03  0.85174522329E+03  0.46999998093E+01 0. -1.
</event>
<event>
 5   0  0.1333546E-04  0.1701532E+04  0.7818609E-02  0.8760491E-01
       -2   -1    0    0    0  501  0.00000000000E+00  0.00000000000E+00  0.40038240162E+03  0.40038240163E+03  0.25500000920E-02 0. -1.
        2   -1    0    0  501    0  0.00000000000E+00  0.00000000000E+00 -0.18077778263E+04  0.18077778263E+04  0.25500000920E-02 0.  1.
    10030    2    1    2    0    0  0.00000000000E+00  0.00000000000E+00 -0.14073954247E+04  0.22081602280E+04  0.17015315780E+04 0.  0.
        5    1    3    3  502    0 -0.45205667996E+03 -0.46848836181E+03  0.70418309760E+01  0.65108237914E+03  0.46999998093E+01 0. -1.
       -5    1    3    3    0  502  0.45205667996E+03  0.46848836181E+03 -0.14144372557E+04  0.15570778488E+04  0.46999998093E+01 0.  1.
</event>
<event>
 5   0  0.6834837E-05  0.1698248E+04  0.7818609E-02  0.8762364E-01
       -1   -1    0    0    0  501  0.00000000000E+00  0.00000000000E+00  0.74475299519E+03  0.74475299521E+03  0.50400001928E-02 0. -1.
        1   -1    0    0  501    0  0.00000000000E+00  0.00000000000E+00 -0.96812139916E+03  0.96812139918E+03  0.50400001928E-02 0.  1.
    10030    2    1    2    0    0  0.00000000000E+00  0.00000000000E+00 -0.22336840397E+03  0.17128743944E+04  0.16982476990E+04 0.  0.
        5    1    3    3  502    0 -0.75288062134E+03  0.13905728974E+03  0.25866087456E+03  0.80814212726E+03  0.46999998093E+01 0. -1.
       -5    1    3    3    0  502  0.75288062134E+03 -0.13905728974E+03 -0.48202927853E+03  0.90473226713E+03  0.46999998093E+01 0.  1.
</event>
<event>
 5   0  0.1255362E-04  0.1699836E+04  0.7818609E-02  0.8761458E-01
        2   -1    0    0  501    0  0.00000000000E+00  0.00000000000E+00  0.12449509400E+04  0.12449509400E+04  0.25500000920E-02 0. -1.
       -2   -1    0    0    0  501  0.00000000000E+00  0.00000000000E+00 -0.58023231268E+03  0.58023231269E+03  0.25500000920E-02 0.  1.
    10030    2    1    2    0    0  0.00000000000E+00  0.00000000000E+00  0.66471862734E+03  0.18251832527E+04  0.16998361840E+04 0.  0.
        1    1    3    3  502    0 -0.11988234142E+03  0.23694686788E+03  0.11992645597E+04  0.12283122886E+04  0.50400001928E-02 0. -1.
       -1    1    3    3    0  502  0.11988234142E+03 -0.23694686788E+03 -0.53454593239E+03  0.59687096415E+03  0.50400001928E-02 0.  1.
</event>
<event>
 5   0  0.6539134E-05  0.1673174E+04  0.7818609E-02  0.8776814E-01
       -1   -1    0    0    0  501  0.00000000000E+00  0.00000000000E+00  0.55955377259E+03  0.55955377261E+03  0.50400001928E-02 0.  1.
        1   -1    0    0  501    0  0.00000000000E+00  0.00000000000E+00 -0.12507778279E+04  0.12507778279E+04  0.50400001928E-02 0. -1.
    10030    2    1    2    0    0  0.00000000000E+00  0.00000000000E+00 -0.69122405533E+03  0.18103316005E+04  0.16731735742E+04 0.  0.
        2    1    3    3  502    0 -0.72234863574E+02 -0.57900377181E+03  0.30304444609E+03  0.65749462325E+03  0.25500000920E-02 0.  1.
       -2    1    3    3    0  502  0.72234863574E+02  0.57900377181E+03 -0.99426850141E+03  0.11528369773E+04  0.25500000920E-02 0. -1.
</event>
<event>
 5   0  0.6539134E-05  0.1698363E+04  0.7818609E-02  0.8762298E-01
        1   -1    0    0  501    0  0.00000000000E+00  0.00000000000E+00  0.13496503996E+04  0.13496503996E+04  0.50400001928E-02 0.  1.
       -1   -1    0    0    0  501  0.00000000000E+00  0.00000000000E+00 -0.53429351821E+03  0.53429351823E+03  0.50400001928E-02 0. -1.
    10030    2    1    2    0    0  0.00000000000E+00  0.00000000000E+00  0.81535688141E+03  0.18839439179E+04  0.16983632832E+04 0.  0.
        2    1    3    3  502    0 -0.26098231991E+03 -0.53787675593E+03  0.10766395027E+04  0.12314933189E+04  0.25500000920E-02 0.  1.
       -2    1    3    3    0  502  0.26098231991E+03  0.53787675593E+03 -0.26128262124E+03  0.65245059893E+03  0.25500000920E-02 0. -1.
</event>
<event>
 5   0  0.6615842E-05  0.1690557E+04  0.7818609E-02  0.8766768E-01
        1   -1    0    0  501    0  0.00000000000E+00  0.00000000000E+00  0.16442685179E+04  0.16442685180E+04  0.50400001928E-02 0. -1.
       -1   -1    0    0    0  501  0.00000000000E+00  0.00000000000E+00 -0.43453716051E+03  0.43453716054E+03  0.50400001928E-02 0.  1.
    10030    2    1    2    0    0  0.00000000000E+00  0.00000000000E+00  0.12097313574E+04  0.20788056785E+04  0.16905570359E+04 0.  0.
        3    1    3    3  502    0  0.49546041987E+03 -0.35383919974E+03 -0.11615037292E+03  0.61981781699E+03  0.10100000352E+00 0.  1.
       -3    1    3    3    0  502 -0.49546041987E+03  0.35383919974E+03  0.13258817304E+04  0.14589878615E+04  0.10100000352E+00 0. -1.
</event>
<event>
 5   0  0.1255362E-04  0.1705056E+04  0.7818609E-02  0.8758486E-01
        2   -1    0    0  501    0  0.00000000000E+00  0.00000000000E+00  0.23973967896E+04  0.23973967896E+04  0.25500000920E-02 0. -1.
       -2   -1    0    0    0  501  0.00000000000E+00  0.00000000000E+00 -0.30316381178E+03  0.30316381179E+03  0.25500000920E-02 0.  1.
    10030    2    1    2    0    0  0.00000000000E+00  0.00000000000E+00  0.20942329778E+04  0.27005606014E+04  0.17050559511E+04 0.  0.
        1    1    3    3  502    0  0.76444017290E+03  0.28564699201E+03  0.65644353446E+03  0.10473209135E+04  0.50400001928E-02 0.  1.
       -1    1    3    3    0  502 -0.76444017290E+03 -0.28564699201E+03  0.14377894434E+04  0.16532396879E+04  0.50400001928E-02 0. -1.
</event>
<event>
 5   0  0.6564887E-05  0.1702724E+04  0.7818609E-02  0.8759812E-01
       -1   -1    0    0    0  501  0.00000000000E+00  0.00000000000E+00  0.39301192874E+03  0.39301192877E+03  0.50400001928E-02 0. -1.
        1   -1    0    0  501    0  0.00000000000E+00  0.00000000000E+00 -0.18442633348E+04  0.18442633348E+04  0.50400001928E-02 0.  1.
    10030    2    1    2    0    0  0.00000000000E+00  0.00000000000E+00 -0.14512514061E+04  0.22372752636E+04  0.17027242764E+04 0.  0.
        4    1    3    3  502    0 -0.63511097062E+03  0.30547397381E+03 -0.98042071312E+02  0.71154350136E+03  0.12699999809E+01 0. -1.
       -4    1    3    3    0  502  0.63511097062E+03 -0.30547397381E+03 -0.13532093348E+04  0.15257317622E+04  0.12699999809E+01 0.  1.
</event>
<event>
 5   0  0.6564887E-05  0.1695255E+04  0.7818609E-02  0.8764075E-01
        1   -1    0    0  501    0  0.00000000000E+00  0.00000000000E+00  0.63710447687E+03  0.63710447689E+03  0.50400001928E-02 0. -1.
       -1   -1    0    0    0  501  0.00000000000E+00  0.00000000000E+00 -0.11277149301E+04  0.11277149301E+04  0.50400001928E-02 0.  1.
    10030    2    1    2    0    0  0.00000000000E+00  0.00000000000E+00 -0.49061045321E+03  0.17648194070E+04  0.16952548252E+04 0.  0.
        4    1    3    3  502    0  0.83275625455E+03  0.12473400857E+03 -0.14421722663E+03  0.85430777460E+03  0.12699999809E+01 0. -1.
       -4    1    3    3    0  502 -0.83275625455E+03 -0.12473400857E+03 -0.34639322658E+03  0.91051163238E+03  0.12699999809E+01 0.  1.
</event>
<event>
 5   0  0.6834837E-05  0.1701433E+04  0.7818609E-02  0.8760547E-01
       -1   -1    0    0    0  501  0.00000000000E+00  0.00000000000E+00  0.68853487396E+03  0.68853487397E+03  0.50400001928E-02 0.  1.
        1   -1    0    0  501    0  0.00000000000E+00  0.00000000000E+00 -0.10510997317E+04  0.10510997317E+04  0.50400001928E-02 0. -1.
    10030    2    1    2    0    0  0.00000000000E+00  0.00000000000E+00 -0.36256485775E+03  0.17396346057E+04  0.17014333032E+04 0.  0.
        5    1    3    3  502    0  0.60846533455E+02  0.50154527726E+03 -0.88108128997E+03  0.10156654446E+04  0.46999998093E+01 0. -1.
       -5    1    3    3    0  502 -0.60846533455E+02 -0.50154527726E+03  0.51851643222E+03  0.72396916112E+03  0.46999998093E+01 0.  1.
</event>
<event>
 5   0  0.1269175E-04  0.1697797E+04  0.7818609E-02  0.8762622E-01
        2   -1    0    0  501    0  0.00000000000E+00  0.00000000000E+00  0.11874679435E+04  0.11874679435E+04  0.25500000920E-02 0. -1.
       -2   -1    0    0    0  501  0.00000000000E+00  0.00000000000E+00 -0.60686187783E+03  0.60686187784E+03  0.25500000920E-02 0.  1.
    10030    2    1    2    0    0  0.00000000000E+00  0.00000000000E+00  0.58060606567E+03  0.17943298213E+04  0.16977974273E+04 0.  0.
        2    1    3    3  502    0  0.66045304933E+01  0.36958992304E+03 -0.51733846196E+03  0.63582970619E+03  0.25500000920E-02 0.  1.
       -2    1    3    3    0  502 -0.66045304933E+01 -0.36958992304E+03  0.10979445276E+04  0.11585001151E+04  0.25500000920E-02 0. -1.
</event>
<event>
 5   0  0.1285639E-04  0.1699487E+04  0.7818609E-02  0.8761657E-01
        2   -1    0    0  501    0  0.00000000000E+00  0.00000000000E+00  0.11455022779E+04  0.11455022779E+04  0.25500000920E-02 0.  1.
       -2   -1    0    0    0  501  0.00000000000E+00  0.00000000000E+00 -0.63034728871E+03  0.63034728872E+03  0.25500000920E-02 0. -1.
    10030    2    1    2    0    0  0.00000000000E+00  0.00000000000E+00  0.51515498921E+03  0.17758495666E+04  0.16994872816E+04 0.  0.
        4    1    3    3  502    0  0.69257011270E+03  0.48482675229E+03  0.16797916610E+03  0.86193326534E+03  0.12699999809E+01 0.  1.
       -4    1    3    3    0  502 -0.69257011270E+03 -0.48482675229E+03  0.34717582311E+03  0.91391630131E+03  0.12699999809E+01 0. -1.
</event>
<event>
 5   0  0.1333546E-04  0.1698479E+04  0.7818609E-02  0.8762232E-01
       -2   -1    0    0    0  501  0.00000000000E+00  0.00000000000E+00  0.57845301724E+03  0.57845301724E+03  0.25500000920E-02 0. -1.
        2   -1    0    0  501    0  0.00000000000E+00  0.00000000000E+00 -0.12467876906E+04  0.12467876906E+04  0.25500000920E-02 0.  1.
    10030    2    1    2    0    0  0.00000000000E+00  0.00000000000E+00 -0.66833467337E+03  0.18252407079E+04  0.16984794394E+04 0.  0.
        5    1    3    3  502    0 -0.26228364102E+03  0.23036585509E+03  0.49777074471E+03  0.60799583865E+03  0.46999998093E+01 0. -1.
       -5    1    3    3    0  502  0.26228364102E+03 -0.23036585509E+03 -0.11661054181E+04  0.12172448692E+04  0.46999998093E+01 0.  1.
</event>
<event>
 5   0  0.1393870E-04  0.1707381E+04  0.7818609E-02  0.8757166E-01
        2   -1    0    0  501    0  0.00000000000E+00  0.00000000000E+00  0.11663676475E+04  0.11663676475E+04  0.25500000920E-02 0. -1.
       -2   -1    0    0    0  501  0.00000000000E+00  0.00000000000E+00 -0.62483486618E+03  0.62483486619E+03  0.25500000920E-02 0.  1.
    10030    2    1    2    0    0  0.00000000000E+00  0.00000000000E+00  0.54153278130E+03  0.17912025137E+04  0.17073806523E+04 0.  0.
        3    1    3    3  502    0  0.40504997425E+03 -0.36329182654E+03  0.96089212279E+03  0.11042464013E+04  0.10100000352E+00 0. -1.
       -3    1    3    3    0  502 -0.40504997425E+03  0.36329182654E+03 -0.41935934149E+03  0.68695611240E+03  0.10100000352E+00 0.  1.
</event>
<event>
 5   0  0.1333546E-04  0.1699158E+04  0.7818609E-02  0.8761844E-01
        2   -1    0    0  501    0  0.00000000000E+00  0.00000000000E+00  0.11715254815E+04  0.11715254815E+04  0.25500000920E-02 0. -1.
       -2   -1    0    0    0  501  0.00000000000E+00  0.00000000000E+00 -0.61610681486E+03  0.61610681487E+03  0.25500000920E-02 0.  1.
    10030    2    1    2    0    0  0.00000000000E+00  0.00000000000E+00  0.55541866668E+03  0.17876322964E+04  0.16991584187E+04 0.  0.
        5    1    3    3  502    0 -0.85261842519E+02  0.25570916738E+03 -0.56991248405E+03  0.63045942736E+03  0.46999998093E+01 0.  1.
       -5    1    3    3    0  502  0.85261842519E+02 -0.25570916738E+03  0.11253311507E+04  0.11571728691E+04  0.46999998093E+01 0. -1.
</event>
<event>
 5   0  0.1269175E-04  0.1698250E+04  0.7818609E-02  0.8762363E-01
       -2   -1    0    0    0  501  0.00000000000E+00  0.00000000000E+00  0.64079685334E+03  0.64079685335E+03  0.25500000920E-02 0.  1.
        2   -1    0    0  501    0  0.00000000000E+00  0.00000000000E+00 -0.11251824687E+04  0.11251824687E+04  0.25500000920E-02 0. -1.
    10030    2    1    2    0    0  0.00000000000E+00  0.00000000000E+00 -0.48438561538E+03  0.17659793221E+04  0.16982501411E+04 0.  0.
        2    1    3    3  502    0 -0.80806002798E+03 -0.24530604872E+03 -0.33448674471E+03  0.90830471140E+03  0.25500000920E-02 0.  1.
       -2    1    3    3    0  502  0.80806002798E+03  0.24530604872E+03 -0.14989887067E+03  0.85767461067E+03  0.25500000920E-02 0. -1.
</event>
<event>
 5   0  0.6601906E-05  0.1699039E+04  0.7818609E-02  0.8761913E-01
        1   -1    0    0  501    0  0.00000000000E+00  0.00000000000E+00  0.20609428119E+04  0.20609428119E+04  0.50400001928E-02 0. -1.
       -1   -1    0    0    0  501  0.00000000000E+00  0.00000000000E+00 -0.35017157260E+03  0.35017157264E+03  0.50400001928E-02 0.  1.
    10030    2    1    2    0    0  0.00000000000E+00  0.00000000000E+00  0.17107712393E+04  0.24111143845E+04  0.16990392409E+04 0.  0.
        1    1    3    3  502    0  0.34740395986E+03  0.18719599572E+03 -0.21220340851E+03  0.44806488230E+03  0.50400001928E-02 0.  1.
       -1    1    3    3    0  502 -0.34740395986E+03 -0.18719599572E+03  0.19229746478E+04  0.19630495022E+04  0.50400001928E-02 0. -1.
</event>
<event>
 5   0  0.6564887E-05  0.1692292E+04  0.7818609E-02  0.8765773E-01
       -1   -1    0    0    0  501  0.00000000000E+00  0.00000000000E+00  0.10117377810E+04  0.10117377810E+04  0.50400001928E-02 0.  1.
        1   -1    0    0  501    0  0.00000000000E+00  0.00000000000E+00 -0.70765696906E+03  0.70765696907E+03  0.50400001928E-02 0. -1.
    10030    2    1    2    0    0  0.00000000000E+00  0.00000000000E+00  0.30408081195E+03  0.17193947501E+04  0.16922922816E+04 0.  0.
        4    1    3    3  502    0  0.33391274507E+03  0.35212266728E+03 -0.55222276970E+03  0.73514603611E+03  0.12699999809E+01 0. -1.
       -4    1    3    3    0  502 -0.33391274507E+03 -0.35212266728E+03  0.85630358164E+03  0.98424871398E+03  0.12699999809E+01 0.  1.
</event>
<event>
 5   0  0.1285639E-04  0.1697061E+04  0.7818609E-02  0.8763042E-01
       -2   -1    0    0    0  501  0.00000000000E+00  0.00000000000E+00  0.61371459691E+03  0.61371459691E+03  0.25500000920E-02 0. -1.
        2   -1    0    0  501    0  0.00000000000E+00  0.00000000000E+00 -0.11731903545E+04  0.11731903545E+04  0.25500000920E-02 0.  1.
    10030    2    1    2    0    0  0.00000000000E+00  0.00000000000E+00 -0.55947575756E+03  0.17869049514E+04  0.16970610425E+04 0.  0.
        4    1    3    3  502    0  0.29408743674E+03  0.12245349224E+03 -0.11078343158E+04  0.11527275318E+04  0.12699999809E+01 0.  1.
       -4    1    3    3    0  502 -0.29408743674E+03 -0.12245349224E+03  0.54835855829E+03  0.63417741962E+03  0.12699999809E+01 0. -1.
</event>
<event>
 5   0  0.1285639E-04  0.1700742E+04  0.7818609E-02  0.8760941E-01
       -2   -1    0    0    0  501  0.00000000000E+00  0.00000000000E+00  0.54390207785E+03  0.54390207786E+03  0.25500000920E-02 0.  1.
        2   -1    0    0  501    0  0.00000000000E+00  0.00000000000E+00 -0.13295241624E+04  0.13295241624E+04  0.25500000920E-02 0. -1.
    10030    2    1    2    0    0  0.00000000000E+00  0.00000000000E+00 -0.78562208453E+03  0.18734262402E+04  0.17007421374E+04 0.  0.
        4    1    3    3  502    0  0.28680029230E+03  0.75858714859E+03 -0.67455522858E+03  0.10548626636E+04  0.12699999809E+01 0.  1.
       -4    1    3    3    0  502 -0.28680029230E+03 -0.75858714859E+03 -0.11106685595E+03  0.81856357668E+03  0.12699999809E+01 0. -1.
</event>
<event>
 5   0  0.6539134E-05  0.1698851E+04  0.7818609E-02  0.8762020E-01
        1   -1    0    0  501    0  0.00000000000E+00  0.00000000000E+00  0.16596931289E+04  0.16596931289E+04  0.50400001928E-02 0. -1.
       -1   -1    0    0    0  501  0.00000000000E+00  0.00000000000E+00 -0.43473336558E+03  0.43473336560E+03  0.50400001928E-02 0.  1.
    10030    2    1    2    0    0  0.00000000000E+00  0.00000000000E+00  0.12249597633E+04  0.20944264945E+04  0.16988513529E+04 0.  0.
        2    1    3    3  502    0  0.14981357381E+03  0.31386298182E+03  0.15678937131E+04  0.16060027316E+04  0.25500000920E-02 0. -1.
       -2    1    3    3    0  502 -0.14981357381E+03 -0.31386298182E+03 -0.34293394979E+03  0.48842376292E+03  0.25500000920E-02 0.  1.
</event>
<event>
 5   0  0.6539134E-05  0.1710416E+04  0.7818609E-02  0.8755446E-01
        1   -1    0    0  501    0  0.00000000000E+00  0.00000000000E+00  0.15752359902E+04  0.15752359902E+04  0.50400001928E-02 0.  1.
       -1   -1    0    0    0  501  0.00000000000E+00  0.00000000000E+00 -0.46429940941E+03  0.46429940943E+03  0.50400001928E-02 0. -1.
    10030    2    1    2    0    0  0.00000000000E+00  0.00000000000E+00  0.11109365808E+04  0.20395353997E+04  0.17104164873E+04 0.  0.
        2    1    3    3  502    0  0.61684422089E+03 -0.37810334192E+03  0.11742648428E+02  0.72359990313E+03  0.25500000920E-02 0. -1.
       -2    1    3    3    0  502 -0.61684422089E+03  0.37810334192E+03  0.10991939324E+04  0.13159354965E+04  0.25500000920E-02 0.  1.
</event>
<event>
 5   0  0.1269175E-04  0.1694805E+04  0.7818609E-02  0.8764333E-01
        2   -1    0    0  501    0  0.00000000000E+00  0.00000000000E+00  0.87906138088E+03  0.87906138089E+03  0.25500000920E-02 0. -1.
       -2   -1    0    0    0  501  0.00000000000E+00  0.00000000000E+00 -0.81688333291E+03  0.81688333292E+03  0.25500000920E-02 0.  1.
    10030    2    1    2    0    0  0.00000000000E+00  0.00000000000E+00  0.62178047971E+02  0.16959447138E+04  0.16948045205E+04 0.  0.
        2    1    3    3  502    0  0.25085490402E+03 -0.63927136982E+03 -0.46572713659E+03  0.82975769530E+03  0.25500000920E-02 0.  1.
       -2    1    3    3    0  502 -0.25085490402E+03  0.63927136982E+03  0.52790518456E+03  0.86618701851E+03  0.25500000920E-02 0. -1.
</event>
<event>
 5   0  0.1393870E-04  0.1697137E+04  0.7818609E-02  0.8762999E-01
        2   -1    0    0  501    0  0.00000000000E+00  0.00000000000E+00  0.51708302843E+03  0.51708302844E+03  0.25500000920E-02 0.  1.
       -2   -1    0    0    0  501  0.00000000000E+00  0.00000000000E+00 -0.13925595529E+04  0.13925595529E+04  0.25500000920E-02 0. -1.
    10030    2    1    2    0    0  0.00000000000E+00  0.00000000000E+00 -0.87547652444E+03  0.19096425813E+04  0.16971374851E+04 0.  0.
        3    1    3    3  502    0 -0.45385953379E+03  0.27427910393E+03  0.30766932142E+03  0.61308883925E+03  0.10100000352E+00 0.  1.
       -3    1    3    3    0  502  0.45385953379E+03 -0.27427910393E+03 -0.11831458459E+04  0.12965537421E+04  0.10100000352E+00 0. -1.
</event>
<event>
 5   0  0.1269175E-04  0.1702773E+04  0.7818609E-02  0.8759784E-01
       -2   -1    0    0    0  501  0.00000000000E+00  0.00000000000E+00  0.36551923592E+03  0.36551923593E+03  0.25500000920E-02 0.  1.
        2   -1    0    0  501    0  0.00000000000E+00  0.00000000000E+00 -0.19830948955E+04  0.19830948955E+04  0.25500000920E-02 0. -1.
    10030    2    1    2    0    0  0.00000000000E+00  0.00000000000E+00 -0.16175756595E+04  0.23486141314E+04  0.17027734212E+04 0.  0.
        2    1    3    3  502    0 -0.24212837992E+03  0.30082506648E+03  0.23777920264E+03  0.45349842580E+03  0.25500000920E-02 0.  1.
       -2    1    3    3    0  502  0.24212837992E+03 -0.30082506648E+03 -0.18553548622E+04  0.18951157056E+04  0.25500000920E-02 0. -1.
</event>
<event>
 5   0  0.1255362E-04  0.1701557E+04  0.7818609E-02  0.8760477E-01
       -2   -1    0    0    0  501  0.00000000000E+00  0.00000000000E+00  0.63531983033E+03  0.63531983033E+03  0.25500000920E-02 0.  1.
        2   -1    0    0  501    0  0.00000000000E+00  0.00000000000E+00 -0.11393067090E+04  0.11393067090E+04  0.25500000920E-02 0. -1.
    10030    2    1    2    0    0  0.00000000000E+00  0.00000000000E+00 -0.50398687868E+03  0.17746265393E+04  0.17015571046E+04 0.  0.
        1    1    3    3  502    0  0.61170564074E+03 -0.59127292728E+03 -0.25830988278E+03  0.88910711448E+03  0.50400001928E-02 0. -1.
       -1    1    3    3    0  502 -0.61170564074E+03  0.59127292728E+03 -0.24567699590E+03  0.88551942485E+03  0.50400001928E-02 0.  1.
</event>
<event>
 5   0  0.6834837E-05  0.1702947E+04  0.7818609E-02  0.8759685E-01
       -1   -1    0    0    0  501  0.00000000000E+00  0.00000000000E+00  0.44544749983E+03  0.44544749985E+03  0.50400001928E-02 0. -1.
        1   -1    0    0  501    0  0.00000000000E+00  0.00000000000E+00 -0.16275936790E+04  0.16275936790E+04  0.50400001928E-02 0.  1.
    10030    2    1    2    0    0  0.00000000000E+00  0.00000000000E+00 -0.11821461791E+04  0.20730411788E+04  0.17029474861E+04 0.  0.
        5    1    3    3  502    0  0.74412797127E+03  0.13143950946E+03 -0.10687591696E+04  0.13089197970E+04  0.46999998093E+01 0.  1.
       -5    1    3    3    0  502 -0.74412797127E+03 -0.13143950946E+03 -0.11338700953E+03  0.76412138186E+03  0.46999998093E+01 0. -1.
</event>
<event>
 5   0  0.1333546E-04  0.1699874E+04  0.7818609E-02  0.8761436E-01
       -2   -1    0    0    0  501  0.00000000000E+00  0.00000000000E+00  0.59699485301E+03  0.59699485302E+03  0.25500000920E-02 0. -1.
        2   -1    0    0  501    0  0.00000000000E+00  0.00000000000E+00 -0.12100491229E+04  0.12100491229E+04  0.25500000920E-02 0.  1.
    10030    2    1    2    0    0  0.00000000000E+00  0.00000000000E+00 -0.61305426984E+03  0.18070439759E+04  0.16998742286E+04 0.  0.
        5    1    3    3  502    0 -0.49881040850E+03  0.57228681028E+03 -0.71278168609E+03  0.10413471270E+04  0.46999998093E+01 0. -1.
       -5    1    3    3    0  502  0.49881040850E+03 -0.57228681028E+03  0.99727416249E+02  0.76569684889E+03  0.46999998093E+01 0.  1.
</event>
<event>
 5   0  0.1285639E-04  0.1701966E+04  0.7818609E-02  0.8760244E-01
       -2   -1    0    0    0  501  0.00000000000E+00  0.00000000000E+00  0.37011273323E+03  0.37011273324E+03  0.25500000920E-02 0. -1.
        2   -1    0    0  501    0  0.00000000000E+00  0.00000000000E+00 -0.19566255823E+04  0.19566255823E+04  0.25500000920E-02 0.  1.
    10030    2    1    2    0    0  0.00000000000E+00  0.00000000000E+00 -0.15865128491E+04  0.23267383156E+04  0.17019659717E+04 0.  0.
        4    1    3    3  502    0  0.52049374212E+03 -0.45080736655E+03 -0.14768409433E+04  0.16294789971E+04  0.12699999809E+01 0.  1.
       -4    1    3    3    0  502 -0.52049374212E+03  0.45080736655E+03 -0.10967190577E+03  0.69725931843E+03  0.12699999809E+01 0. -1.
</event>
<event>
 5   0  0.1269175E-04  0.1702050E+04  0.7818609E-02  0.8760196E-01
       -2   -1    0    0    0  501  0.00000000000E+00  0.00000000000E+00  0.54210963153E+03  0.54210963153E+03  0.25500000920E-02 0.  1.
        2   -1    0    0  501    0  0.00000000000E+00  0.00000000000E+00 -0.13359723468E+04  0.13359723468E+04  0.25500000920E-02 0. -1.
    10030    2    1    2    0    0  0.00000000000E+00  0.00000000000E+00 -0.79386271528E+03  0.18780819783E+04  0.17020499131E+04 0.  0.
        2    1    3    3  502    0 -0.48866632246E+03 -0.68708067044E+03 -0.52451334062E+03  0.99296972104E+03  0.25500000920E-02 0.  1.
       -2    1    3    3    0  502  0.48866632246E+03  0.68708067044E+03 -0.26934937466E+03  0.88511225731E+03  0.25500000920E-02 0. -1.
</event>
<event>
 5   0  0.6834837E-05  0.1708771E+04  0.7818609E-02  0.8756378E-01
       -1   -1    0    0    0  501  0.00000000000E+00  0.00000000000E+00  0.72930434473E+03  0.72930434475E+03  0.50400001928E-02 0. -1.
        1   -1    0    0  501    0  0.00000000000E+00  0.00000000000E+00 -0.10009184907E+04  0.10009184908E+04  0.50400001928E-02 0.  1.
    10030    2    1    2    0    0  0.00000000000E+00  0.00000000000E+00 -0.27161414601E+03  0.17302228355E+04  0.17087705569E+04 0.  0.
        5    1    3    3  502    0  0.44386971690E+03 -0.72435468324E+03 -0.43881417493E+02  0.85068072830E+03  0.46999998093E+01 0.  1.
       -5    1    3    3    0  502 -0.44386971690E+03  0.72435468324E+03 -0.22773272851E+03  0.87954210720E+03  0.46999998093E+01 0. -1.
</event>
<event>
 5   0  0.6834837E-05  0.1700361E+04  0.7818609E-02  0.8761159E-01
        1   -1    0    0  501    0  0.00000000000E+00  0.00000000000E+00  0.94014328713E+03  0.94014328715E+03  0.50400001928E-02 0.  1.
       -1   -1    0    0    0  501  0.00000000000E+00  0.00000000000E+00 -0.76882602309E+03  0.76882602311E+03  0.50400001928E-02 0. -1.
    10030    2    1    2    0    0  0.00000000000E+00  0.00000000000E+00  0.17131726404E+03  0.17089693103E+04  0.17003606966E+04 0.  0.
        5    1    3    3  502    0  0.63235686700E+03  0.27334578237E+03  0.58636899469E+03  0.90467884463E+03  0.46999998093E+01 0.  1.
       -5    1    3    3    0  502 -0.63235686700E+03 -0.27334578237E+03 -0.41505173065E+03  0.80429046563E+03  0.46999998093E+01 0. -1.
</event>
<event>
 5   0  0.1255362E-04  0.1670193E+04  0.7818609E-02  0.8778549E-01
       -2   -1    0    0    0  501  0.00000000000E+00  0.00000000000E+00  0.28739881319E+03  0.28739881320E+03  0.25500000920E-02 0. -1.
        2   -1    0    0  501    0  0.00000000000E+00  0.00000000000E+00 -0.24265453905E+04  0.24265453905E+04  0.25500000920E-02 0.  1.
    10030    2    1    2    0    0  0.00000000000E+00  0.00000000000E+00 -0.21391465773E+04  0.27139442037E+04  0.16701931210E+04 0.  0.
        1    1    3    3  502    0 -0.72321647659E+03  0.17406395375E+03 -0.16862885917E+04  0.18430706841E+04  0.50400001928E-02 0.  1.
       -1    1    3    3    0  502  0.72321647659E+03 -0.17406395375E+03 -0.45285798559E+03  0.87087351960E+03  0.50400001928E-02 0. -1.
</event>
<event>
 5   0  0.1333546E-04  0.1697203E+04  0.7818609E-02  0.8762961E-01
        2   -1    0    0  501    0  0.00000000000E+00  0.00000000000E+00  0.92992629680E+03  0.92992629680E+03  0.25500000920E-02 0.  1.
       -2   -1    0    0    0  501  0.00000000000E+00  0.00000000000E+00 -0.77438857623E+03  0.77438857624E+03  0.25500000920E-02 0. -1.
    10030    2    1    2    0    0  0.00000000000E+00  0.00000000000E+00  0.15553772057E+03  0.17043148730E+04  0.16972027586E+04 0.  0.
        5    1    3    3  502    0 -0.59815130602E+03 -0.10526587686E+03 -0.51736658225E+03  0.79784469676E+03  0.46999998093E+01 0. -1.
       -5    1    3    3    0  502  0.59815130602E+03  0.10526587686E+03  0.67290430282E+03  0.90647017627E+03  0.46999998093E+01 0.  1.
</event>
<event>
 5   0  0.1333546E-04  0.1700908E+04  0.7818609E-02  0.8760847E-01
        2   -1    0    0  501    0  0.00000000000E+00  0.00000000000E+00  0.67948039236E+03  0.67948039236E+03  0.25500000920E-02 0. -1.
       -2   -1    0    0    0  501  0.00000000000E+00  0.00000000000E+00 -0.10644484923E+04  0.10644484923E+04  0.25500000920E-02 0.  1.
    10030    2    1    2    0    0  0.00000000000E+00  0.00000000000E+00 -0.38496809990E+03  0.17439288846E+04  0.17009078507E+04 0.  0.
        5    1    3    3  502    0 -0.68379089609E+03  0.35121283179E+03 -0.56545591217E+03  0.95429708236E+03  0.46999998093E+01 0.  1.
       -5    1    3    3    0  502  0.68379089609E+03 -0.35121283179E+03  0.18048781227E+03  0.78963180227E+03  0.46999998093E+01 0. -1.
</event>
<event>
 5   0  0.6564887E-05  0.1704527E+04  0.7818609E-02  0.8758787E-01
        1   -1    0    0  501    0  0.00000000000E+00  0.00000000000E+00  0.47790324015E+03  0.47790324018E+03  0.50400001928E-02 0. -1.
       -1   -1    0    0    0  501  0.00000000000E+00  0.00000000000E+00 -0.15198742631E+04  0.15198742632E+04  0.50400001928E-02 0.  1.
    10030    2    1    2    0    0  0.00000000000E+00  0.00000000000E+00 -0.10419710230E+04  0.19977775033E+04  0.17045267203E+04 0.  0.
        4    1    3    3  502    0  0.40101390571E+03 -0.34176992118E+03 -0.13061072714E+04  0.14083808608E+04  0.12699999809E+01 0.  1.
       -4    1    3    3    0  502 -0.40101390571E+03  0.34176992118E+03  0.26413624846E+03  0.58939664254E+03  0.12699999809E+01 0. -1.
</event>
<event>
 5   0  0.6564887E-05  0.1700276E+04  0.7818609E-02  0.8761207E-01
       -1   -1    0    0    0  501  0.00000000000E+00  0.00000000000E+00  0.13294221891E+04  0.13294221891E+04  0.50400001928E-02 0. -1.
        1   -1    0    0  501    0  0.00000000000E+00  0.00000000000E+00 -0.54364546797E+03  0.54364546799E+03  0.50400001928E-02 0.  1.
    10030    2    1    2    0    0  0.00000000000E+00  0.00000000000E+00  0.78577672112E+03  0.18730676571E+04  0.17002756814E+04 0.  0.
        4    1    3    3  502    0 -0.54863508890E+03  0.39598351444E+03  0.95990935952E+03  0.11744066569E+04  0.12699999809E+01 0. -1.
       -4    1    3    3    0  502  0.54863508890E+03 -0.39598351444E+03 -0.17413263840E+03  0.69866100015E+03  0.12699999809E+01 0.  1.
</event>
<event>
 5   0  0.6539134E-05  0.1618755E+04  0.7818609E-02  0.8809109E-01
       -1   -1    0    0    0  501  0.00000000000E+00  0.00000000000E+00  0.10147126041E+04  0.10147126041E+04  0.50400001928E-02 0. -1.
        1   -1    0    0  501    0  0.00000000000E+00  0.00000000000E+00 -0.64559319642E+03  0.64559319644E+03  0.50400001928E-02 0.  1.
    10030    2    1    2    0    0  0.00000000000E+00  0.00000000000E+00  0.36911940769E+03  0.16603058006E+04  0.16187545256E+04 0.  0.
        2    1    3    3  502    0  0.32013214947E+03 -0.39887882919E+03  0.82795949383E+03  0.97319362767E+03  0.25500000920E-02 0. -1.
       -2    1    3    3    0  502 -0.32013214947E+03  0.39887882919E+03 -0.45884008613E+03  0.68711217290E+03  0.25500000920E-02 0.  1.
</event>
<event>
 5   0  0.1255362E-04  0.1704565E+04  0.7818609E-02  0.8758765E-01
        2   -1    0    0  501    0  0.00000000000E+00  0.00000000000E+00  0.60222585052E+03  0.60222585053E+03  0.25500000920E-02 0. -1.
       -2   -1    0    0    0  501  0.00000000000E+00  0.00000000000E+00 -0.12061678481E+04  0.12061678481E+04  0.25500000920E-02 0.  1.
    10030    2    1    2    0    0  0.00000000000E+00  0.00000000000E+00 -0.60394199762E+03  0.18083936987E+04  0.17045649981E+04 0.  0.
        1    1    3    3  502    0 -0.77056791939E+03 -0.32200293838E+03 -0.12153904324E+03  0.84393871210E+03  0.50400001928E-02 0.  1.
       -1    1    3    3    0  502  0.77056791939E+03  0.32200293838E+03 -0.48240295438E+03  0.96445498658E+03  0.50400001928E-02 0. -1.
</event>
<event>
 5   0  0.1333546E-04  0.1699689E+04  0.7818609E-02  0.8761542E-01
       -2   -1    0    0    0  501  0.00000000000E+00  0.00000000000E+00  0.79698801269E+03  0.79698801269E+03  0.25500000920E-02 0.  1.
        2   -1    0    0  501    0  0.00000000000E+00  0.00000000000E+00 -0.90620613054E+03  0.90620613054E+03  0.25500000920E-02 0. -1.
    10030    2    1    2    0    0  0.00000000000E+00  0.00000000000E+00 -0.10921811785E+03  0.17031941432E+04  0.16996887045E+04 0.  0.
        5    1    3    3  502    0 -0.70019711618E+03 -0.46215049152E+03 -0.19036634407E+03  0.86030257077E+03  0.46999998093E+01 0. -1.
       -5    1    3    3    0  502  0.70019711618E+03  0.46215049152E+03  0.81148226222E+02  0.84289157247E+03  0.46999998093E+01 0.  1.
</event>
<event>
 5   0  0.1393870E-04  0.1703710E+04  0.7818609E-02  0.8759251E-01
        2   -1    0    0  501    0  0.00000000000E+00  0.00000000000E+00  0.77184834227E+03  0.77184834227E+03  0.25500000920E-02 0.  1.
       -2   -1    0    0    0  501  0.00000000000E+00  0.00000000000E+00 -0.94015476613E+03  0.94015476614E+03  0.25500000920E-02 0. -1.
    10030    2    1    2    0    0  0.00000000000E+00  0.00000000000E+00 -0.16830642387E+03  0.17120031084E+04  0.17037099492E+04 0.  0.
        3    1    3    3  502    0 -0.16432407182E+03 -0.82296479597E+03  0.62789343922E+02  0.84155568318E+03  0.10100000352E+00 0.  1.
       -3    1    3    3    0  502  0.16432407182E+03  0.82296479597E+03 -0.23109576779E+03  0.87044742522E+03  0.10100000352E+00 0. -1.
</event>
<event>
 5   0  0.6564887E-05  0.1684911E+04  0.7818609E-02  0.8770017E-01
        1   -1    0    0  501    0  0.00000000000E+00  0.00000000000E+00  0.10676350756E+04  0.10676350756E+04  0.50400001928E-02 0. -1.
       -1   -1    0    0    0  501  0.00000000000E+00  0.00000000000E+00 -0.66476977549E+03  0.66476977551E+03  0.50400001928E-02 0.  1.
    10030    2    1    2    0    0  0.00000000000E+00  0.00000000000E+00  0.40286530008E+03  0.17324048511E+04  0.16849113087E+04 0.  0.
        4    1    3    3  502    0  0.39413872241E+03  0.26133385412E+03  0.91828602187E+03  0.10329044228E+04  0.12699999809E+01 0. -1.
       -4    1    3    3    0  502 -0.39413872241E+03 -0.26133385412E+03 -0.51542072179E+03  0.69950042828E+03  0.12699999809E+01 0.  1.
</event>
<event>
 5   0  0.1255362E-04  0.1698541E+04  0.7818609E-02  0.8762197E-01
        2   -1    0    0  501    0  0.00000000000E+00  0.00000000000E+00  0.92642910473E+03  0.92642910473E+03  0.25500000920E-02 0. -1.
       -2   -1    0    0    0  501  0.00000000000E+00  0.00000000000E+00 -0.77853822848E+03  0.77853822848E+03  0.25500000920E-02 0.  1.
    10030    2    1    2    0    0  0.00000000000E+00  0.00000000000E+00  0.14789087625E+03  0.17049673332E+04  0.16985411081E+04 0.  0.
        1    1    3    3  502    0 -0.31704193643E+03 -0.65839246065E+03 -0.36043218114E+03  0.81480523988E+03  0.50400001928E-02 0.  1.
       -1    1    3    3    0  502  0.31704193643E+03  0.65839246065E+03  0.50832305740E+03  0.89016209333E+03  0.50400001928E-02 0. -1.
</event>
<event>
 5   0  0.6564887E-05  0.1664671E+04  0.7818609E-02  0.8781774E-01
       -1   -1    0    0    0  501  0.00000000000E+00  0.00000000000E+00  0.96021262442E+03  0.96021262443E+03  0.50400001928E-02 0. -1.
        1   -1    0    0  501    0  0.00000000000E+00  0.00000000000E+00 -0.72148879877E+03  0.72148879879E+03  0.50400001928E-02 0.  1.
    10030    2    1    2    0    0  0.00000000000E+00  0.00000000000E+00  0.23872382565E+03  0.16817014232E+04  0.16646713225E+04 0.  0.
        4    1    3    3  502    0 -0.55833682072E+03  0.56326134360E+03 -0.13576413322E+03  0.80463461231E+03  0.12699999809E+01 0.  1.
       -4    1    3    3    0  502  0.55833682072E+03 -0.56326134360E+03  0.37448795887E+03  0.87706681091E+03  0.12699999809E+01 0. -1.
</event>
<event>
 5   0  0.1393870E-04  0.1702534E+04  0.7818609E-02  0.8759921E-01
       -2   -1    0    0    0  501  0.00000000000E+00  0.00000000000E+00  0.19169234901E+04  0.19169234901E+04  0.25500000920E-02 0.  1.
        2   -1    0    0  501    0  0.00000000000E+00  0.00000000000E+00 -0.37803040329E+03  0.37803040330E+03  0.25500000920E-02 0. -1.
    10030    2    1    2    0    0  0.00000000000E+00  0.00000000000E+00  0.15388930868E+04  0.22949538934E+04  0.17025338294E+04 0.  0.
        3    1    3    3  502    0 -0.62212483604E+03  0.94196206123E+02 -0.34236282453E+01  0.62922489485E+03  0.10100000352E+00 0. -1.
       -3    1    3    3    0  502  0.62212483604E+03 -0.94196206123E+02  0.15423167151E+04  0.16657289986E+04  0.10100000352E+00 0.  1.
</event>
<event>
 5   0  0.1285639E-04  0.1706558E+04  0.7818609E-02  0.8757633E-01
        2   -1    0    0  501    0  0.00000000000E+00  0.00000000000E+00  0.22986565504E+04  0.22986565504E+04  0.25500000920E-02 0.  1.
       -2   -1    0    0    0  501  0.00000000000E+00  0.00000000000E+00 -0.31674369643E+03  0.31674369644E+03  0.25500000920E-02 0. -1.
    10030    2    1    2    0    0  0.00000000000E+00  0.00000000000E+00  0.19819128540E+04  0.26154002469E+04  0.17065579072E+04 0.  0.
        4    1    3    3  502    0 -0.52245479026E+02 -0.76228077570E+03  0.15730903257E+04  0.17488328556E+04  0.12699999809E+01 0.  1.
       -4    1    3    3    0  502  0.52245479026E+02  0.76228077570E+03  0.40882252828E+03  0.86656739127E+03  0.12699999809E+01 0. -1.
</event>
<event>
 5   0  0.6601906E-05  0.1713228E+04  0.7818609E-02  0.8753856E-01
        1   -1    0    0  501    0  0.00000000000E+00  0.00000000000E+00  0.11042973860E+04  0.11042973860E+04  0.50400001928E-02 0.  1.
       -1   -1    0    0    0  501  0.00000000000E+00  0.00000000000E+00 -0.66448381930E+03  0.66448381932E+03  0.50400001928E-02 0. -1.
    10030    2    1    2    0    0  0.00000000000E+00  0.00000000000E+00  0.43981356673E+03  0.17687812054E+04  0.17132282332E+04 0.  0.
        1    1    3    3  502    0  0.78040433195E+03 -0.35040986985E+03  0.17408583632E+03  0.87299706566E+03  0.50400001928E-02 0. -1.
       -1    1    3    3    0  502 -0.78040433195E+03  0.35040986985E+03  0.26572773042E+03  0.89578413971E+03  0.50400001928E-02 0.  1.
</event>
<event>
 5   0  0.1255362E-04  0.1706552E+04  0.7818609E-02  0.8757636E-01
        2   -1    0    0  501    0  0.00000000000E+00  0.00000000000E+00  0.63604019962E+03  0.63604019963E+03  0.25500000920E-02 0.  1.
       -2   -1    0    0    0  501  0.00000000000E+00  0.00000000000E+00 -0.11447078665E+04  0.11447078666E+04  0.25500000920E-02 0. -1.
    10030    2    1    2    0    0  0.00000000000E+00  0.00000000000E+00 -0.50866766692E+03  0.17807480662E+04  0.17065523373E+04 0.  0.
        1    1    3    3  502    0  0.13366220212E+03  0.81211025977E+03 -0.48927044719E+03  0.95748327861E+03  0.50400001928E-02 0.  1.
       -1    1    3    3    0  502 -0.13366220212E+03 -0.81211025977E+03 -0.19397219737E+02  0.82326478757E+03  0.50400001928E-02 0. -1.
</event>
<event>
 5   0  0.6834837E-05  0.1695850E+04  0.7818609E-02  0.8763735E-01
       -1   -1    0    0    0  501  0.00000000000E+00  0.00000000000E+00  0.69447566233E+03  0.69447566235E+03  0.50400001928E-02 0.  1.
        1   -1    0    0  501    0  0.00000000000E+00  0.00000000000E+00 -0.10352802886E+04  0.10352802886E+04  0.50400001928E-02 0. -1.
    10030    2    1    2    0    0  0.00000000000E+00  0.00000000000E+00 -0.34080462627E+03  0.17297559510E+04  0.16958501870E+04 0.  0.
        5    1    3    3  502    0 -0.25352296835E+03 -0.76700957970E+03 -0.43319125526E+03  0.91665388477E+03  0.46999998093E+01 0. -1.
       -5    1    3    3    0  502  0.25352296835E+03  0.76700957970E+03  0.92386628993E+02  0.81310206619E+03  0.46999998093E+01 0.  1.
</event>
<event>
 5   0  0.6834837E-05  0.1702250E+04  0.7818609E-02  0.8760082E-01
       -1   -1    0    0    0  501  0.00000000000E+00  0.00000000000E+00  0.51173857012E+03  0.51173857014E+03  0.50400001928E-02 0.  1.
        1   -1    0    0  501    0  0.00000000000E+00  0.00000000000E+00 -0.14155933406E+04  0.14155933406E+04  0.50400001928E-02 0. -1.
    10030    2    1    2    0    0  0.00000000000E+00  0.00000000000E+00 -0.90385477050E+03  0.19273319108E+04  0.17022499370E+04 0.  0.
        5    1    3    3  502    0  0.80720367068E+02  0.68002408472E+03 -0.10241700885E+04  0.12320288120E+04  0.46999998093E+01 0. -1.
       -5    1    3    3    0  502 -0.80720367068E+02 -0.68002408472E+03  0.12031531796E+03  0.69530309879E+03  0.46999998093E+01 0.  1.
</event>
<event>
 5   0  0.6601906E-05  0.1697444E+04  0.7818609E-02  0.8762823E-01
        1   -1    0    0  501    0  0.00000000000E+00  0.00000000000E+00  0.19972491004E+04  0.19972491004E+04  0.50400001928E-02 0. -1.
       -1   -1    0    0    0  501  0.00000000000E+00  0.00000000000E+00 -0.36066068871E+03  0.36066068875E+03  0.50400001928E-02 0.  1.
    10030    2    1    2    0    0  0.00000000000E+00  0.00000000000E+00  0.16365884117E+04  0.23579097891E+04  0.16974442390E+04 0.  0.
        1    1    3    3  502    0  0.38383720072E+03  0.69388747272E+03  0.39806530913E+03  0.88728057108E+03  0.50400001928E-02 0.  1.
       -1    1    3    3    0  502 -0.38383720072E+03 -0.69388747272E+03  0.12385231026E+04  0.14706292181E+04  0.50400001928E-02 0. -1.
</event>
<event>
 5   0  0.6615842E-05  0.1706144E+04  0.7818609E-02  0.8757868E-01
       -1   -1    0    0    0  501  0.00000000000E+00  0.00000000000E+00  0.60899902292E+03  0.60899902294E+03  0.50400001928E-02 0. -1.
        1   -1    0    0  501    0  0.00000000000E+00  0.00000000000E+00 -0.11949635959E+04  0.11949635959E+04  0.50400001928E-02 0.  1.
    10030    2    1    2    0    0  0.00000000000E+00  0.00000000000E+00 -0.58596457301E+03  0.18039626189E+04  0.17061437951E+04 0.  0.
        3    1    3    3  502    0  0.76979673118E+02 -0.33604278683E+03  0.53206363899E+03  0.63398923555E+03  0.10100000352E+00 0. -1.
       -3    1    3    3    0  502 -0.76979673118E+02  0.33604278683E+03 -0.11180282120E+04  0.11699733833E+04  0.10100000352E+00 0.  1.
</event>
<event>
 5   0  0.6615842E-05  0.1695672E+04  0.7818609E-02  0.8763837E-01
        1   -1    0    0  501    0  0.00000000000E+00  0.00000000000E+00  0.18458447840E+04  0.18458447840E+04  0.50400001928E-02 0. -1.
       -1   -1    0    0    0  501  0.00000000000E+00  0.00000000000E+00 -0.38942910161E+03  0.38942910164E+03  0.50400001928E-02 0.  1.
    10030    2    1    2    0    0  0.00000000000E+00  0.00000000000E+00  0.14564156824E+04  0.22352738857E+04  0.16956717560E+04 0.  0.
        3    1    3    3  502    0  0.49457690325E+03  0.39545690655E+03 -0.14962860130E+02  0.63341643139E+03  0.10100000352E+00 0.  1.
       -3    1    3    3    0  502 -0.49457690325E+03 -0.39545690655E+03  0.14713785426E+04  0.16018574543E+04  0.10100000352E+00 0. -1.
</event>
<event>
 5   0  0.6564887E-05  0.1722040E+04  0.7818609E-02  0.8748893E-01
        1   -1    0    0  501    0  0.00000000000E+00  0.00000000000E+00  0.10910032588E+04  0.10910032588E+04  0.50400001928E-02 0.  1.
       -1   -1    0    0    0  501  0.00000000000E+00  0.00000000000E+00 -0.67951685710E+03  0.67951685712E+03  0.50400001928E-02 0. -1.
    10030    2    1    2    0    0  0.00000000000E+00  0.00000000000E+00  0.41148640173E+03  0.17705201160E+04  0.17220396111E+04 0.  0.
        4    1    3    3  502    0 -0.70218829466E+03  0.15729861273E+03  0.69185652558E+03  0.99823760679E+03  0.12699999809E+01 0.  1.
       -4    1    3    3    0  502  0.70218829466E+03 -0.15729861273E+03 -0.28037012385E+03  0.77228250917E+03  0.12699999809E+01 0. -1.
</event>
<event>
 5   0  0.6615842E-05  0.1699505E+04  0.7818609E-02  0.8761647E-01
       -1   -1    0    0    0  501  0.00000000000E+00  0.00000000000E+00  0.42704655679E+03  0.42704655682E+03  0.50400001928E-02 0.  1.
        1   -1    0    0  501    0  0.00000000000E+00  0.00000000000E+00 -0.16908671184E+04  0.16908671184E+04  0.50400001928E-02 0. -1.
    10030    2    1    2    0    0  0.00000000000E+00  0.00000000000E+00 -0.12638205616E+04  0.21179136752E+04  0.16995046113E+04 0.  0.
        3    1    3    3  502    0 -0.10784831041E+03  0.25353277543E+03  0.36983871199E+03  0.46118413824E+03  0.10100000352E+00 0.  1.
       -3    1    3    3    0  502  0.10784831041E+03 -0.25353277543E+03 -0.16336592736E+04  0.16567295370E+04  0.10100000352E+00 0. -1.
</event>
<event>
 5   0  0.6601906E-05  0.1698393E+04  0.7818609E-02  0.8762281E-01
       -1   -1    0    0    0  501  0.00000000000E+00  0.00000000000E+00  0.97193638274E+03  0.97193638275E+03  0.50400001928E-02 0.  1.
        1   -1    0    0  501    0  0.00000000000E+00  0.00000000000E+00 -0.74195683654E+03  0.74195683655E+03  0.50400001928E-02 0. -1.
    10030    2    1    2    0    0  0.00000000000E+00  0.00000000000E+00  0.22997954620E+03  0.17138932193E+04  0.16983931746E+04 0.  0.
        1    1    3    3  502    0 -0.10088348856E+03 -0.25149777425E+03 -0.69715707587E+03  0.74796831295E+03  0.50400001928E-02 0. -1.
       -1    1    3    3    0  502  0.10088348856E+03  0.25149777425E+03  0.92713662207E+03  0.96592490636E+03  0.50400001928E-02 0.  1.
</event>
<event>
 5   0  0.6834837E-05  0.1701019E+04  0.7818609E-02  0.8760784E-01
        1   -1    0    0  501    0  0.00000000000E+00  0.00000000000E+00  0.86798240812E+03  0.86798240813E+03  0.50400001928E-02 0. -1.
       -1   -1    0    0    0  501  0.00000000000E+00  0.00000000000E+00 -0.83338800025E+03  0.83338800026E+03  0.50400001928E-02 0.  1.
    10030    2    1    2    0    0  0.00000000000E+00  0.00000000000E+00  0.34594407871E+02  0.17013704084E+04  0.17010186635E+04 0.  0.
        5    1    3    3  502    0 -0.19236039590E+03  0.14279860027E+03 -0.79892918408E+03  0.83408866035E+03  0.46999998093E+01 0.  1.
       -5    1    3    3    0  502  0.19236039590E+03 -0.14279860027E+03  0.83352359195E+03  0.86728174805E+03  0.46999998093E+01 0. -1.
</event>
<event>
 5   0  0.1393870E-04  0.1719451E+04  0.7818609E-02  0.8750348E-01
        2   -1    0    0  501    0  0.00000000000E+00  0.00000000000E+00  0.18605947038E+04  0.18605947038E+04  0.25500000920E-02 0. -1.
       -2   -1    0    0    0  501  0.00000000000E+00  0.00000000000E+00 -0.39725356878E+03  0.39725356879E+03  0.25500000920E-02 0.  1.
    10030    2    1    2    0    0  0.00000000000E+00  0.00000000000E+00  0.14633411350E+04  0.22578482726E+04  0.17194509428E+04 0.  0.
        3    1    3    3  502    0  0.57131228903E+02  0.36039616150E+03  0.17538651483E+04  0.17914218764E+04  0.10100000352E+00 0. -1.
       -3    1    3    3    0  502 -0.57131228903E+02 -0.36039616150E+03 -0.29052401332E+03  0.46642639618E+03  0.10100000352E+00 0.  1.
</event>
<event>
 5   0  0.1269175E-04  0.1709107E+04  0.7818609E-02  0.8756187E-01
       -2   -1    0    0    0  501  0.00000000000E+00  0.00000000000E+00  0.11278696283E+04  0.11278696283E+04  0.25500000920E-02 0. -1.
        2   -1    0    0  501    0  0.00000000000E+00  0.00000000000E+00 -0.64747010059E+03  0.64747010060E+03  0.25500000920E-02 0.  1.
    10030    2    1    2    0    0  0.00000000000E+00  0.00000000000E+00  0.48039952771E+03  0.17753397289E+04  0.17091072075E+04 0.  0.
        2    1    3    3  502    0  0.53324762754E+03 -0.46319333258E+03  0.73983956067E+03  0.10228703100E+04  0.25500000920E-02 0. -1.
       -2    1    3    3    0  502 -0.53324762754E+03  0.46319333258E+03 -0.25944003296E+03  0.75246941887E+03  0.25500000920E-02 0.  1.
</event>
<event>
 5   0  0.6834837E-05  0.1700696E+04  0.7818609E-02  0.8760967E-01
       -1   -1    0    0    0  501  0.00000000000E+00  0.00000000000E+00  0.45148484876E+03  0.45148484879E+03  0.50400001928E-02 0.  1.
        1   -1    0    0  501    0  0.00000000000E+00  0.00000000000E+00 -0.16015864164E+04  0.16015864164E+04  0.50400001928E-02 0. -1.
    10030    2    1    2    0    0  0.00000000000E+00  0.00000000000E+00 -0.11501015676E+04  0.20530712652E+04  0.17006963292E+04 0.  0.
        5    1    3    3  502    0 -0.46327089026E+03  0.63282529786E+03 -0.17835899902E+03  0.80431448943E+03  0.46999998093E+01 0. -1.
       -5    1    3    3    0  502  0.46327089026E+03 -0.63282529786E+03 -0.97174256861E+03  0.12487567758E+04  0.46999998093E+01 0.  1.
</event>
<event>
 5   0  0.1393870E-04  0.1701654E+04  0.7818609E-02  0.8760422E-01
       -2   -1    0    0    0  501  0.00000000000E+00  0.00000000000E+00  0.47234831450E+03  0.47234831450E+03  0.25500000920E-02 0.  1.
        2   -1    0    0  501    0  0.00000000000E+00  0.00000000000E+00 -0.15325696445E+04  0.15325696445E+04  0.25500000920E-02 0. -1.
    10030    2    1    2    0    0  0.00000000000E+00  0.00000000000E+00 -0.10602213300E+04  0.20049179590E+04  0.17016541228E+04 0.  0.
        3    1    3    3  502    0 -0.78929136115E+03  0.31516708200E+03 -0.57717355635E+03  0.10273463227E+04  0.10100000352E+00 0. -1.
       -3    1    3    3    0  502  0.78929136115E+03 -0.31516708200E+03 -0.48304777368E+03  0.97757163636E+03  0.10100000352E+00 0.  1.
</event>
<event>
 5   0  0.1255362E-04  0.1701524E+04  0.7818609E-02  0.8760495E-01
       -2   -1    0    0    0  501  0.00000000000E+00  0.00000000000E+00  0.38489929803E+03  0.38489929804E+03  0.25500000920E-02 0.  1.
        2   -1    0    0  501    0  0.00000000000E+00  0.00000000000E+00 -0.18804823834E+04  0.18804823834E+04  0.25500000920E-02 0. -1.
    10030    2    1    2    0    0  0.00000000000E+00  0.00000000000E+00 -0.14955830854E+04  0.22653816815E+04  0.17015244334E+04 0.  0.
        1    1    3    3  502    0 -0.38410582721E+02 -0.66529397140E+03 -0.43660910449E+02  0.66783060455E+03  0.50400001928E-02 0.  1.
       -1    1    3    3    0  502  0.38410582721E+02  0.66529397140E+03 -0.14519221750E+04  0.15975510769E+04  0.50400001928E-02 0. -1.
</event>
<event>
 5   0  0.1285639E-04  0.1705420E+04  0.7818609E-02  0.8758279E-01
        2   -1    0    0  501    0  0.00000000000E+00  0.00000000000E+00  0.18041064971E+04  0.18041064972E+04  0.25500000920E-02 0. -1.
       -2   -1    0    0    0  501  0.00000000000E+00  0.00000000000E+00 -0.40303290150E+03  0.40303290151E+03  0.25500000920E-02 0.  1.
    10030    2    1    2    0    0  0.00000000000E+00  0.00000000000E+00  0.14010735957E+04  0.22071393987E+04  0.17054199203E+04 0.  0.
        4    1    3    3  502    0  0.64328451287E+03  0.55615176332E+03  0.78231611127E+03  0.11554825222E+04  0.12699999809E+01 0.  1.
       -4    1    3    3    0  502 -0.64328451287E+03 -0.55615176332E+03  0.61875748438E+03  0.10516568764E+04  0.12699999809E+01 0. -1.
</event>
<event>
 5   0  0.1269175E-04  0.1705412E+04  0.7818609E-02  0.8758284E-01
        2   -1    0    0  501    0  0.00000000000E+00  0.00000000000E+00  0.69438820861E+03  0.69438820862E+03  0.25500000920E-02 0. -1.
       -2   -1    0    0    0  501  0.00000000000E+00  0.00000000000E+00 -0.10471198490E+04  0.10471198490E+04  0.25500000920E-02 0.  1.
    10030    2    1    2    0    0  0.00000000000E+00  0.00000000000E+00 -0.35273164042E+03  0.17415080577E+04  0.17054121803E+04 0.  0.
        2    1    3    3  502    0  0.56646608617E+03  0.91113349813E+02  0.46779634947E+03  0.74028298230E+03  0.25500000920E-02 0. -1.
       -2    1    3    3    0  502 -0.56646608617E+03 -0.91113349813E+02 -0.82052798990E+03  0.10012250753E+04  0.25500000920E-02 0.  1.
</event>
<event>
 5   0  0.6834837E-05  0.1708710E+04  0.7818609E-02  0.8756412E-01
        1   -1    0    0  501    0  0.00000000000E+00  0.00000000000E+00  0.11016796430E+04  0.11016796430E+04  0.50400001928E-02 0.  1.
       -1   -1    0    0    0  501  0.00000000000E+00  0.00000000000E+00 -0.66255421647E+03  0.66255421649E+03  0.50400001928E-02 0. -1.
    10030    2    1    2    0    0  0.00000000000E+00  0.00000000000E+00  0.43912542656E+03  0.17642338595E+04  0.17087100312E+04 0.  0.
        5    1    3    3  502    0  0.33946590225E+03 -0.64889441417E+03 -0.23473413477E+03  0.76904048239E+03  0.46999998093E+01 0. -1.
       -5    1    3    3    0  502 -0.33946590225E+03  0.64889441417E+03  0.67385956133E+03  0.99519337715E+03  0.46999998093E+01 0.  1.
</event>
<event>
 5   0  0.1269175E-04  0.1696454E+04  0.7818609E-02  0.8763389E-01
       -2   -1    0    0    0  501  0.00000000000E+00  0.00000000000E+00  0.37984821459E+03  0.37984821460E+03  0.25500000920E-02 0. -1.
        2   -1    0    0  501    0  0.00000000000E+00  0.00000000000E+00 -0.18941485789E+04  0.18941485789E+04  0.25500000920E-02 0.  1.
    10030    2    1    2    0    0  0.00000000000E+00  0.00000000000E+00 -0.15143003643E+04  0.22739967935E+04  0.16964538966E+04 0.  0.
        2    1    3    3  502    0  0.26879208196E+03  0.44579243847E+03 -0.16548544845E+04  0.17347978114E+04  0.25500000920E-02 0.  1.
       -2    1    3    3    0  502 -0.26879208196E+03 -0.44579243847E+03  0.14055412025E+03  0.53919898205E+03  0.25500000920E-02 0. -1.
</event>
<event>
 5   0  0.6834837E-05  0.1700008E+04  0.7818609E-02  0.8761360E-01
       -1   -1    0    0    0  501  0.00000000000E+00  0.00000000000E+00  0.41628697796E+03  0.41628697799E+03  0.50400001928E-02 0.  1.
        1   -1    0    0  501    0  0.00000000000E+00  0.00000000000E+00 -0.17355984188E+04  0.17355984188E+04  0.50400001928E-02 0. -1.
    10030    2    1    2    0    0  0.00000000000E+00  0.00000000000E+00 -0.13193114408E+04  0.21518853968E+04  0.17000082597E+04 0.  0.
        5    1    3    3  502    0 -0.18686012251E+03 -0.25235300683E+03  0.34016191184E+03  0.46295892011E+03  0.46999998093E+01 0.  1.
       -5    1    3    3    0  502  0.18686012251E+03  0.25235300683E+03 -0.16594733526E+04  0.16889264767E+04  0.46999998093E+01 0. -1.
</event>
<event>
 5   0  0.6564887E-05  0.1721022E+04  0.7818609E-02  0.8749465E-01
       -1   -1    0    0    0  501  0.00000000000E+00  0.00000000000E+00  0.91204293358E+03  0.91204293359E+03  0.50400001928E-02 0.  1.
        1   -1    0    0  501    0  0.00000000000E+00  0.00000000000E+00 -0.81189101263E+03  0.81189101265E+03  0.50400001928E-02 0. -1.
    10030    2    1    2    0    0  0.00000000000E+00  0.00000000000E+00  0.10015192095E+03  0.17239339462E+04  0.17210223252E+04 0.  0.
        4    1    3    3  502    0 -0.26978330442E+03 -0.80168447181E+03  0.20844728056E+03  0.87116755297E+03  0.12699999809E+01 0. -1.
       -4    1    3    3    0  502  0.26978330442E+03  0.80168447181E+03 -0.10829535961E+03  0.85276639327E+03  0.12699999809E+01 0.  1.
</event>
<event>
 5   0  0.6539134E-05  0.1703655E+04  0.7818609E-02  0.8759282E-01
        1   -1    0    0  501    0  0.00000000000E+00  0.00000000000E+00  0.15345692777E+04  0.15345692777E+04  0.50400001928E-02 0.  1.
       -1   -1    0    0    0  501  0.00000000000E+00  0.00000000000E+00 -0.47284290412E+03  0.47284290415E+03  0.50400001928E-02 0. -1.
    10030    2    1    2    0    0  0.00000000000E+00  0.00000000000E+00  0.10617263736E+04  0.20074121819E+04  0.17036551222E+04 0.  0.
        2    1    3    3  502    0  0.72346770183E+03  0.39786057858E+03  0.28394976834E+03  0.87311283723E+03  0.25500000920E-02 0.  1.
       -2    1    3    3    0  502 -0.72346770183E+03 -0.39786057858E+03  0.77777660525E+03  0.11342993446E+04  0.25500000920E-02 0. -1.
</event>
<event>
 5   0  0.6564887E-05  0.1701379E+04  0.7818609E-02  0.8760578E-01
       -1   -1    0    0    0  501  0.00000000000E+00  0.00000000000E+00  0.79440999791E+03  0.79440999792E+03  0.50400001928E-02 0. -1.
        1   -1    0    0  501    0  0.00000000000E+00  0.00000000000E+00 -0.91095611179E+03  0.91095611180E+03  0.50400001928E-02 0.  1.
    10030    2    1    2    0    0  0.00000000000E+00  0.00000000000E+00 -0.11654611388E+03  0.17053661097E+04  0.17013790205E+04 0.  0.
        4    1    3    3  502    0 -0.34889687072E+03 -0.39178341408E+03 -0.72950479685E+03  0.89855558063E+03  0.12699999809E+01 0.  1.
       -4    1    3    3    0  502  0.34889687072E+03  0.39178341408E+03  0.61295868297E+03  0.80681052910E+03  0.12699999809E+01 0. -1.
</event>
<event>
 5   0  0.1255362E-04  0.1705414E+04  0.7818609E-02  0.8758283E-01
       -2   -1    0    0    0  501  0.00000000000E+00  0.00000000000E+00  0.77109023650E+03  0.77109023650E+03  0.25500000920E-02 0.  1.
        2   -1    0    0  501    0  0.00000000000E+00  0.00000000000E+00 -0.94296240619E+03  0.94296240620E+03  0.25500000920E-02 0. -1.
    10030    2    1    2    0    0  0.00000000000E+00  0.00000000000E+00 -0.17187216969E+03  0.17140526427E+04  0.17054138557E+04 0.  0.
        1    1    3    3  502    0 -0.10633887680E+02 -0.12550808062E+03  0.76168860705E+03  0.77203296044E+03  0.50400001928E-02 0.  1.
       -1    1    3    3    0  502  0.10633887680E+02  0.12550808062E+03 -0.93356077674E+03  0.94201968226E+03  0.50400001928E-02 0. -1.
</event>
<event>
 5   0  0.1285639E-04  0.1626739E+04  0.7818609E-02  0.8804288E-01
        2   -1    0    0  501    0  0.00000000000E+00  0.00000000000E+00  0.11466496818E+04  0.11466496818E+04  0.25500000920E-02 0.  1.
       -2   -1    0    0    0  501  0.00000000000E+00  0.00000000000E+00 -0.57695900842E+03  0.57695900842E+03  0.25500000920E-02 0. -1.
    10030    2    1    2    0    0  0.00000000000E+00  0.00000000000E+00  0.56969067334E+03  0.17236086902E+04  0.16267389015E+04 0.  0.
        4    1    3    3  502    0  0.55443883460E+03  0.58530229893E+03  0.39889847152E+03  0.89950142075E+03  0.12699999809E+01 0.  1.
       -4    1    3    3    0  502 -0.55443883460E+03 -0.58530229893E+03  0.17079220182E+03  0.82410726944E+03  0.12699999809E+01 0. -1.
</event>
<event>
 5   0  0.6615842E-05  0.1705545E+04  0.7818609E-02  0.8758208E-01
        1   -1    0    0  501    0  0.00000000000E+00  0.00000000000E+00  0.96178610596E+03  0.96178610598E+03  0.50400001928E-02 0. -1.
       -1   -1    0    0    0  501  0.00000000000E+00  0.00000000000E+00 -0.75611459831E+03  0.75611459832E+03  0.50400001928E-02 0.  1.
    10030    2    1    2    0    0  0.00000000000E+00  0.00000000000E+00  0.20567150766E+03  0.17179007043E+04  0.17055445057E+04 0.  0.
        3    1    3    3  502    0 -0.58511940674E+03 -0.27762482542E+03 -0.45596292272E+03  0.79204953187E+03  0.10100000352E+00 0.  1.
       -3    1    3    3    0  502  0.58511940674E+03  0.27762482542E+03  0.66163443038E+03  0.92585117243E+03  0.10100000352E+00 0. -1.
</event>
<event>
 5   0  0.1393870E-04  0.1698632E+04  0.7818609E-02  0.8762145E-01
        2   -1    0    0  501    0  0.00000000000E+00  0.00000000000E+00  0.12719997643E+04  0.12719997643E+04  0.25500000920E-02 0. -1.
       -2   -1    0    0    0  501  0.00000000000E+00  0.00000000000E+00 -0.56708932076E+03  0.56708932076E+03  0.25500000920E-02 0.  1.
    10030    2    1    2    0    0  0.00000000000E+00  0.00000000000E+00  0.70491044351E+03  0.18390890850E+04  0.16986317816E+04 0.  0.
        3    1    3    3  502    0  0.17960198734E+03 -0.12671245813E+03  0.12406720046E+04  0.12599920453E+04  0.10100000352E+00 0. -1.
       -3    1    3    3    0  502 -0.17960198734E+03  0.12671245813E+03 -0.53576156111E+03  0.57909703976E+03  0.10100000352E+00 0.  1.
</event>
<event>
 5   0  0.6615842E-05  0.1702601E+04  0.7818609E-02  0.8759882E-01
        1   -1    0    0  501    0  0.00000000000E+00  0.00000000000E+00  0.14268991483E+04  0.14268991483E+04  0.50400001928E-02 0.  1.
       -1   -1    0    0    0  501  0.00000000000E+00  0.00000000000E+00 -0.50789360131E+03  0.50789360133E+03  0.50400001928E-02 0. -1.
    10030    2    1    2    0    0  0.00000000000E+00  0.00000000000E+00  0.91900554695E+03  0.19347927496E+04  0.17026014767E+04 0.  0.
        3    1    3    3  502    0  0.26189906863E+03 -0.45497181787E+03  0.12210622601E+04  0.13291288615E+04  0.10100000352E+00 0.  1.
       -3    1    3    3    0  502 -0.26189906863E+03  0.45497181787E+03 -0.30205671314E+03  0.60566388811E+03  0.10100000352E+00 0. -1.
</event>
<event>
 5   0  0.6539134E-05  0.1724315E+04  0.7818609E-02  0.8747617E-01
        1   -1    0    0  501    0  0.00000000000E+00  0.00000000000E+00  0.10338254190E+04  0.10338254190E+04  0.50400001928E-02 0. -1.
       -1   -1    0    0    0  501  0.00000000000E+00  0.00000000000E+00 -0.71899529935E+03  0.71899529937E+03  0.50400001928E-02 0.  1.
    10030    2    1    2    0    0  0.00000000000E+00  0.00000000000E+00  0.31483011962E+03  0.17528207184E+04  0.17243150717E+04 0.  0.
        2    1    3    3  502    0  0.36594911933E+03  0.17483904108E+03  0.93079998498E+03  0.10153206687E+04  0.25500000920E-02 0. -1.
       -2    1    3    3    0  502 -0.36594911933E+03 -0.17483904108E+03 -0.61596986536E+03  0.73750004967E+03  0.25500000920E-02 0.  1.
</event>
<event>
 5   0  0.1269175E-04  0.1794368E+04  0.7818609E-02  0.8709300E-01
        2   -1    0    0  501    0  0.00000000000E+00  0.00000000000E+00  0.22150218536E+04  0.22150218536E+04  0.25500000920E-02 0.  1.
       -2   -1    0    0    0  501  0.00000000000E+00  0.00000000000E+00 -0.36339993155E+03  0.36339993155E+03  0.25500000920E-02 0. -1.
    10030    2    1    2    0    0  0.00000000000E+00  0.00000000000E+00  0.18516219220E+04  0.25784217851E+04  0.17943676212E+04 0.  0.
        2    1    3    3  502    0 -0.75868038256E+03  0.47713306628E+03  0.98482940289E+03  0.13315933458E+04  0.25500000920E-02 0.  1.
       -2    1    3    3    0  502  0.75868038256E+03 -0.47713306628E+03  0.86679251911E+03  0.12468284393E+04  0.25500000920E-02 0. -1.
</event>
<event>
 5   0  0.4720875E-05  0.1700086E+04  0.7818609E-02  0.8761315E-01
        3   -1    0    0  501    0  0.00000000000E+00  0.00000000000E+00  0.14607527427E+04  0.14607527461E+04  0.10100000352E+00 0. -1.
       -3   -1    0    0    0  501  0.00000000000E+00  0.00000000000E+00 -0.49465814831E+03  0.49465815862E+03  0.10100000352E+00 0.  1.
    10030    2    1    2    0    0  0.00000000000E+00  0.00000000000E+00  0.96609459434E+03  0.19554109048E+04  0.17000861864E+04 0.  0.
        2    1    3    3  502    0  0.24488209020E+03 -0.73168142275E+03  0.89333936332E+03  0.11804152492E+04  0.25500000920E-02 0. -1.
       -2    1    3    3    0  502 -0.24488209020E+03  0.73168142275E+03  0.72755231020E+02  0.77499565556E+03  0.25500000920E-02 0.  1.
</event>
<event>
 5   0  0.6601906E-05  0.1721697E+04  0.7818609E-02  0.8749085E-01
       -1   -1    0    0    0  501  0.00000000000E+00  0.00000000000E+00  0.75781380680E+03  0.75781380681E+03  0.50400001928E-02 0. -1.
        1   -1    0    0  501    0  0.00000000000E+00  0.00000000000E+00 -0.97789249310E+03  0.97789249311E+03  0.50400001928E-02 0.  1.
    10030    2    1    2    0    0  0.00000000000E+00  0.00000000000E+00 -0.22007868630E+03  0.17357062999E+04  0.17216973403E+04 0.  0.
        1    1    3    3  502    0 -0.30236229853E+03 -0.69478127402E+03 -0.52191773357E+03  0.92007722444E+03  0.50400001928E-02 0.  1.
       -1    1    3    3    0  502  0.30236229853E+03  0.69478127402E+03  0.30183904727E+03  0.81562907549E+03  0.50400001928E-02 0. -1.
</event>
<event>
 5   0  0.1285639E-04  0.1698917E+04  0.7818609E-02  0.8761982E-01
       -2   -1    0    0    0  501  0.00000000000E+00  0.00000000000E+00  0.63845763699E+03  0.63845763700E+03  0.25500000920E-02 0. -1.
        2   -1    0    0  501    0  0.00000000000E+00  0.00000000000E+00 -0.11301925342E+04  0.11301925342E+04  0.25500000920E-02 0.  1.
    10030    2    1    2    0    0  0.00000000000E+00  0.00000000000E+00 -0.49173489725E+03  0.17686501712E+04  0.16989173668E+04 0.  0.
        4    1    3    3  502    0  0.38675902683E+03 -0.57622101100E+03  0.26410164441E+03  0.74253921771E+03  0.12699999809E+01 0. -1.
       -4    1    3    3    0  502 -0.38675902683E+03  0.57622101100E+03 -0.75583654166E+03  0.10261109535E+04  0.12699999809E+01 0.  1.
</event>
<event>
 5   0  0.6601906E-05  0.1697682E+04  0.7818609E-02  0.8762688E-01
        1   -1    0    0  501    0  0.00000000000E+00  0.00000000000E+00  0.11391413104E+04  0.11391413104E+04  0.50400001928E-02 0. -1.
       -1   -1    0    0    0  501  0.00000000000E+00  0.00000000000E+00 -0.63252113727E+03  0.63252113729E+03  0.50400001928E-02 0.  1.
    10030    2    1    2    0    0  0.00000000000E+00  0.00000000000E+00  0.50662017317E+03  0.17716624477E+04  0.16976818986E+04 0.  0.
        1    1    3    3  502    0  0.82520356132E+03  0.16811274190E+03  0.14233631219E+03  0.85409744022E+03  0.50400001928E-02 0.  1.
       -1    1    3    3    0  502 -0.82520356132E+03 -0.16811274190E+03  0.36428386098E+03  0.91756500751E+03  0.50400001928E-02 0. -1.
</event>
<event>
 5   0  0.1285639E-04  0.1690853E+04  0.7818609E-02  0.8766599E-01
        2   -1    0    0  501    0  0.00000000000E+00  0.00000000000E+00  0.93823822603E+03  0.93823822604E+03  0.25500000920E-02 0.  1.
       -2   -1    0    0    0  501  0.00000000000E+00  0.00000000000E+00 -0.76179558608E+03  0.76179558608E+03  0.25500000920E-02 0. -1.
    10030    2    1    2    0    0  0.00000000000E+00  0.00000000000E+00  0.17644263996E+03  0.17000338121E+04  0.16908527308E+04 0.  0.
        4    1    3    3  502    0  0.60304347696E+03 -0.34788741120E+03  0.57046832615E+03  0.90006822520E+03  0.12699999809E+01 0.  1.
       -4    1    3    3    0  502 -0.60304347696E+03  0.34788741120E+03 -0.39402568619E+03  0.79996558692E+03  0.12699999809E+01 0. -1.
</event>
<event>
 5   0  0.1333546E-04  0.1707835E+04  0.7818609E-02  0.8756908E-01
       -2   -1    0    0    0  501  0.00000000000E+00  0.00000000000E+00  0.14304639207E+04  0.14304639207E+04  0.25500000920E-02 0.  1.
        2   -1    0    0  501    0  0.00000000000E+00  0.00000000000E+00 -0.50974753662E+03  0.50974753663E+03  0.25500000920E-02 0. -1.
    10030    2    1    2    0    0  0.00000000000E+00  0.00000000000E+00  0.92071638412E+03  0.19402114574E+04  0.17078354251E+04 0.  0.
        5    1    3    3  502    0 -0.48567680648E+03  0.64482792777E+03  0.14415575806E+03  0.82005365030E+03  0.46999998093E+01 0. -1.
       -5    1    3    3    0  502  0.48567680648E+03 -0.64482792777E+03  0.77656062606E+03  0.11201578071E+04  0.46999998093E+01 0.  1.
</event>
<event>
 5   0  0.6564887E-05  0.1700014E+04  0.7818609E-02  0.8761356E-01
        1   -1    0    0  501    0  0.00000000000E+00  0.00000000000E+00  0.11543488591E+04  0.11543488591E+04  0.50400001928E-02 0.  1.
       -1   -1    0    0    0  501  0.00000000000E+00  0.00000000000E+00 -0.62590435429E+03  0.62590435431E+03  0.50400001928E-02 0. -1.
    10030    2    1    2    0    0  0.00000000000E+00  0.00000000000E+00  0.52844450479E+03  0.17802532134E+04  0.17000140909E+04 0.  0.
        4    1    3    3  502    0  0.99503746165E+02 -0.56891517377E+03 -0.38886813933E+03  0.69626540423E+03  0.12699999809E+01 0. -1.
       -4    1    3    3    0  502 -0.99503746165E+02  0.56891517377E+03  0.91731264412E+03  0.10839878092E+04  0.12699999809E+01 0.  1.
</event>
<event>
 5   0  0.1333546E-04  0.1702998E+04  0.7818609E-02  0.8759656E-01
       -2   -1    0    0    0  501  0.00000000000E+00  0.00000000000E+00  0.97080756122E+03  0.97080756123E+03  0.25500000920E-02 0.  1.
        2   -1    0    0  501    0  0.00000000000E+00  0.00000000000E+00 -0.74685292121E+03  0.74685292121E+03  0.25500000920E-02 0. -1.
    10030    2    1    2    0    0  0.00000000000E+00  0.00000000000E+00  0.22395464002E+03  0.17176604824E+04  0.17029979014E+04 0.  0.
        5    1    3    3  502    0 -0.22947209046E+03 -0.49662751871E+03 -0.54612190511E+03  0.77302494002E+03  0.46999998093E+01 0. -1.
       -5    1    3    3    0  502  0.22947209046E+03  0.49662751871E+03  0.77007654513E+03  0.94463554242E+03  0.46999998093E+01 0.  1.
</event>
<event>
 5   0  0.6539134E-05  0.1738241E+04  0.7818609E-02  0.8739850E-01
       -1   -1    0    0    0  501  0.00000000000E+00  0.00000000000E+00  0.74038346595E+03  0.74038346597E+03  0.50400001928E-02 0. -1.
        1   -1    0    0  501    0  0.00000000000E+00  0.00000000000E+00 -0.10202418941E+04  0.10202418941E+04  0.50400001928E-02 0.  1.
    10030    2    1    2    0    0  0.00000000000E+00  0.00000000000E+00 -0.27985842815E+03  0.17606253601E+04  0.17382407540E+04 0.  0.
        2    1    3    3  502    0 -0.48867854141E+03 -0.71319493117E+03 -0.49808688498E+02  0.86598766281E+03  0.25500000920E-02 0.  1.
       -2    1    3    3    0  502  0.48867854141E+03  0.71319493117E+03 -0.23004973965E+03  0.89463769728E+03  0.25500000920E-02 0. -1.
</event>
<event>
 5   0  0.1269175E-04  0.1698996E+04  0.7818609E-02  0.8761937E-01
       -2   -1    0    0    0  501  0.00000000000E+00  0.00000000000E+00  0.31902873165E+03  0.31902873166E+03  0.25500000920E-02 0. -1.
        2   -1    0    0  501    0  0.00000000000E+00  0.00000000000E+00 -0.22620123122E+04  0.22620123122E+04  0.25500000920E-02 0.  1.
    10030    2    1    2    0    0  0.00000000000E+00  0.00000000000E+00 -0.19429835805E+04  0.25810410438E+04  0.16989960788E+04 0.  0.
        2    1    3    3  502    0 -0.41017365287E+03 -0.12712938368E+03  0.14200190073E+03  0.45229287583E+03  0.25500000920E-02 0. -1.
       -2    1    3    3    0  502  0.41017365287E+03  0.12712938368E+03 -0.20849854813E+04  0.21287481680E+04  0.25500000920E-02 0.  1.
</event>
<event>
 5   0  0.6834837E-05  0.1699541E+04  0.7818609E-02  0.8761626E-01
       -1   -1    0    0    0  501  0.00000000000E+00  0.00000000000E+00  0.64439530329E+03  0.64439530331E+03  0.50400001928E-02 0. -1.
        1   -1    0    0  501    0  0.00000000000E+00  0.00000000000E+00 -0.11206014204E+04  0.11206014204E+04  0.50400001928E-02 0.  1.
    10030    2    1    2    0    0  0.00000000000E+00  0.00000000000E+00 -0.47620611710E+03  0.17649967237E+04  0.16995414584E+04 0.  0.
        5    1    3    3  502    0 -0.17492457092E+03 -0.24807839893E+03 -0.10623627167E+04  0.11048882881E+04  0.46999998093E+01 0.  1.
       -5    1    3    3    0  502  0.17492457092E+03  0.24807839893E+03  0.58615659955E+03  0.66010843558E+03  0.46999998093E+01 0. -1.
</event>
</LesHouchesEvents>
